<UPF version="2.0.1">
  <PP_INFO>

 This pseudopotential file has been produced using the code
 ONCVPSP  (Optimized Norm-Conservinng Vanderbilt PSeudopotential)
 fully-relativistic version 3.3.0 08/16/2017 by D. R. Hamann
 The code is available through a link at URL www.mat-simresearch.com.
 Documentation with the package provides a full discription of the
 input data below.


 While it is not required under the terms of the GNU GPL, it is
 suggested that you cite D. R. Hamann, Phys. Rev. B 88, 085117 (2013)
 in any publication using these pseudopotentials.

    <PP_INPUTFILE>
# ATOM AND REFERENCE CONFIGURATION
# atsym  z   nc   nv     iexc    psfile
  F  9.00    1    2       4      upf
#
#   n    l    f        energy (Ha)
    1    0    2.00
    2    0    2.00
    2    1    5.00
#
# PSEUDOPOTENTIAL AND OPTIMIZATION
# lmax
    1
#
#   l,   rc,     ep,   ncon, nbas, qcut
    0   1.56741  -1.09875    5    8   8.73495
    1   1.64712  -0.40753    5    8   8.69707
#
# LOCAL POTENTIAL
# lloc, lpopt,  rc(5),   dvloc0
    4    5   0.96222      0.00000
#
# VANDERBILT-KLEINMAN-BYLANDER PROJECTORs
# l, nproj, debl
    0    2   1.51125
    1    2   1.53089
#
# MODEL CORE CHARGE
# icmod, fcfact, rcfact
    0   0.00000   0.00000
#
# LOG DERIVATIVE ANALYSIS
# epsh1, epsh2, depsh
   -5.00    3.00    0.02
#
# OUTPUT GRID
# rlmax, drl
    6.00    0.01
#
# TEST CONFIGURATIONS
# ncnf
    0
# nvcnf
#   n    l    f
    </PP_INPUTFILE>
  </PP_INFO>
  <!--                               -->
  <!-- END OF HUMAN READABLE SECTION -->
  <!--                               -->
    <PP_HEADER
       generated="Generated using ONCVPSP code by D. R. Hamann"
       author="anonymous"
       date="170818"
       comment=""
       element="F "
       pseudo_type="NC"
       relativistic="full"
       is_ultrasoft="F"
       is_paw="F"
       is_coulomb="F"
       has_so="T"
       has_wfc="F"
       has_gipaw="F"
       core_correction="F"
       functional="PBE"
       z_valence="    7.00"
       total_psenergy="  -4.74656484597E+01"
       rho_cutoff="   8.31000000000E+00"
       l_max="1"
       l_local="-1"
       mesh_size="   832"
       number_of_wfc="3"
       number_of_proj="6"/>
 <PP_MESH>
   <PP_R type="real"  size=" 832" columns="8">
    0.0000    0.0100    0.0200    0.0300    0.0400    0.0500    0.0600    0.0700
    0.0800    0.0900    0.1000    0.1100    0.1200    0.1300    0.1400    0.1500
    0.1600    0.1700    0.1800    0.1900    0.2000    0.2100    0.2200    0.2300
    0.2400    0.2500    0.2600    0.2700    0.2800    0.2900    0.3000    0.3100
    0.3200    0.3300    0.3400    0.3500    0.3600    0.3700    0.3800    0.3900
    0.4000    0.4100    0.4200    0.4300    0.4400    0.4500    0.4600    0.4700
    0.4800    0.4900    0.5000    0.5100    0.5200    0.5300    0.5400    0.5500
    0.5600    0.5700    0.5800    0.5900    0.6000    0.6100    0.6200    0.6300
    0.6400    0.6500    0.6600    0.6700    0.6800    0.6900    0.7000    0.7100
    0.7200    0.7300    0.7400    0.7500    0.7600    0.7700    0.7800    0.7900
    0.8000    0.8100    0.8200    0.8300    0.8400    0.8500    0.8600    0.8700
    0.8800    0.8900    0.9000    0.9100    0.9200    0.9300    0.9400    0.9500
    0.9600    0.9700    0.9800    0.9900    1.0000    1.0100    1.0200    1.0300
    1.0400    1.0500    1.0600    1.0700    1.0800    1.0900    1.1000    1.1100
    1.1200    1.1300    1.1400    1.1500    1.1600    1.1700    1.1800    1.1900
    1.2000    1.2100    1.2200    1.2300    1.2400    1.2500    1.2600    1.2700
    1.2800    1.2900    1.3000    1.3100    1.3200    1.3300    1.3400    1.3500
    1.3600    1.3700    1.3800    1.3900    1.4000    1.4100    1.4200    1.4300
    1.4400    1.4500    1.4600    1.4700    1.4800    1.4900    1.5000    1.5100
    1.5200    1.5300    1.5400    1.5500    1.5600    1.5700    1.5800    1.5900
    1.6000    1.6100    1.6200    1.6300    1.6400    1.6500    1.6600    1.6700
    1.6800    1.6900    1.7000    1.7100    1.7200    1.7300    1.7400    1.7500
    1.7600    1.7700    1.7800    1.7900    1.8000    1.8100    1.8200    1.8300
    1.8400    1.8500    1.8600    1.8700    1.8800    1.8900    1.9000    1.9100
    1.9200    1.9300    1.9400    1.9500    1.9600    1.9700    1.9800    1.9900
    2.0000    2.0100    2.0200    2.0300    2.0400    2.0500    2.0600    2.0700
    2.0800    2.0900    2.1000    2.1100    2.1200    2.1300    2.1400    2.1500
    2.1600    2.1700    2.1800    2.1900    2.2000    2.2100    2.2200    2.2300
    2.2400    2.2500    2.2600    2.2700    2.2800    2.2900    2.3000    2.3100
    2.3200    2.3300    2.3400    2.3500    2.3600    2.3700    2.3800    2.3900
    2.4000    2.4100    2.4200    2.4300    2.4400    2.4500    2.4600    2.4700
    2.4800    2.4900    2.5000    2.5100    2.5200    2.5300    2.5400    2.5500
    2.5600    2.5700    2.5800    2.5900    2.6000    2.6100    2.6200    2.6300
    2.6400    2.6500    2.6600    2.6700    2.6800    2.6900    2.7000    2.7100
    2.7200    2.7300    2.7400    2.7500    2.7600    2.7700    2.7800    2.7900
    2.8000    2.8100    2.8200    2.8300    2.8400    2.8500    2.8600    2.8700
    2.8800    2.8900    2.9000    2.9100    2.9200    2.9300    2.9400    2.9500
    2.9600    2.9700    2.9800    2.9900    3.0000    3.0100    3.0200    3.0300
    3.0400    3.0500    3.0600    3.0700    3.0800    3.0900    3.1000    3.1100
    3.1200    3.1300    3.1400    3.1500    3.1600    3.1700    3.1800    3.1900
    3.2000    3.2100    3.2200    3.2300    3.2400    3.2500    3.2600    3.2700
    3.2800    3.2900    3.3000    3.3100    3.3200    3.3300    3.3400    3.3500
    3.3600    3.3700    3.3800    3.3900    3.4000    3.4100    3.4200    3.4300
    3.4400    3.4500    3.4600    3.4700    3.4800    3.4900    3.5000    3.5100
    3.5200    3.5300    3.5400    3.5500    3.5600    3.5700    3.5800    3.5900
    3.6000    3.6100    3.6200    3.6300    3.6400    3.6500    3.6600    3.6700
    3.6800    3.6900    3.7000    3.7100    3.7200    3.7300    3.7400    3.7500
    3.7600    3.7700    3.7800    3.7900    3.8000    3.8100    3.8200    3.8300
    3.8400    3.8500    3.8600    3.8700    3.8800    3.8900    3.9000    3.9100
    3.9200    3.9300    3.9400    3.9500    3.9600    3.9700    3.9800    3.9900
    4.0000    4.0100    4.0200    4.0300    4.0400    4.0500    4.0600    4.0700
    4.0800    4.0900    4.1000    4.1100    4.1200    4.1300    4.1400    4.1500
    4.1600    4.1700    4.1800    4.1900    4.2000    4.2100    4.2200    4.2300
    4.2400    4.2500    4.2600    4.2700    4.2800    4.2900    4.3000    4.3100
    4.3200    4.3300    4.3400    4.3500    4.3600    4.3700    4.3800    4.3900
    4.4000    4.4100    4.4200    4.4300    4.4400    4.4500    4.4600    4.4700
    4.4800    4.4900    4.5000    4.5100    4.5200    4.5300    4.5400    4.5500
    4.5600    4.5700    4.5800    4.5900    4.6000    4.6100    4.6200    4.6300
    4.6400    4.6500    4.6600    4.6700    4.6800    4.6900    4.7000    4.7100
    4.7200    4.7300    4.7400    4.7500    4.7600    4.7700    4.7800    4.7900
    4.8000    4.8100    4.8200    4.8300    4.8400    4.8500    4.8600    4.8700
    4.8800    4.8900    4.9000    4.9100    4.9200    4.9300    4.9400    4.9500
    4.9600    4.9700    4.9800    4.9900    5.0000    5.0100    5.0200    5.0300
    5.0400    5.0500    5.0600    5.0700    5.0800    5.0900    5.1000    5.1100
    5.1200    5.1300    5.1400    5.1500    5.1600    5.1700    5.1800    5.1900
    5.2000    5.2100    5.2200    5.2300    5.2400    5.2500    5.2600    5.2700
    5.2800    5.2900    5.3000    5.3100    5.3200    5.3300    5.3400    5.3500
    5.3600    5.3700    5.3800    5.3900    5.4000    5.4100    5.4200    5.4300
    5.4400    5.4500    5.4600    5.4700    5.4800    5.4900    5.5000    5.5100
    5.5200    5.5300    5.5400    5.5500    5.5600    5.5700    5.5800    5.5900
    5.6000    5.6100    5.6200    5.6300    5.6400    5.6500    5.6600    5.6700
    5.6800    5.6900    5.7000    5.7100    5.7200    5.7300    5.7400    5.7500
    5.7600    5.7700    5.7800    5.7900    5.8000    5.8100    5.8200    5.8300
    5.8400    5.8500    5.8600    5.8700    5.8800    5.8900    5.9000    5.9100
    5.9200    5.9300    5.9400    5.9500    5.9600    5.9700    5.9800    5.9900
    6.0000    6.0100    6.0200    6.0300    6.0400    6.0500    6.0600    6.0700
    6.0800    6.0900    6.1000    6.1100    6.1200    6.1300    6.1400    6.1500
    6.1600    6.1700    6.1800    6.1900    6.2000    6.2100    6.2200    6.2300
    6.2400    6.2500    6.2600    6.2700    6.2800    6.2900    6.3000    6.3100
    6.3200    6.3300    6.3400    6.3500    6.3600    6.3700    6.3800    6.3900
    6.4000    6.4100    6.4200    6.4300    6.4400    6.4500    6.4600    6.4700
    6.4800    6.4900    6.5000    6.5100    6.5200    6.5300    6.5400    6.5500
    6.5600    6.5700    6.5800    6.5900    6.6000    6.6100    6.6200    6.6300
    6.6400    6.6500    6.6600    6.6700    6.6800    6.6900    6.7000    6.7100
    6.7200    6.7300    6.7400    6.7500    6.7600    6.7700    6.7800    6.7900
    6.8000    6.8100    6.8200    6.8300    6.8400    6.8500    6.8600    6.8700
    6.8800    6.8900    6.9000    6.9100    6.9200    6.9300    6.9400    6.9500
    6.9600    6.9700    6.9800    6.9900    7.0000    7.0100    7.0200    7.0300
    7.0400    7.0500    7.0600    7.0700    7.0800    7.0900    7.1000    7.1100
    7.1200    7.1300    7.1400    7.1500    7.1600    7.1700    7.1800    7.1900
    7.2000    7.2100    7.2200    7.2300    7.2400    7.2500    7.2600    7.2700
    7.2800    7.2900    7.3000    7.3100    7.3200    7.3300    7.3400    7.3500
    7.3600    7.3700    7.3800    7.3900    7.4000    7.4100    7.4200    7.4300
    7.4400    7.4500    7.4600    7.4700    7.4800    7.4900    7.5000    7.5100
    7.5200    7.5300    7.5400    7.5500    7.5600    7.5700    7.5800    7.5900
    7.6000    7.6100    7.6200    7.6300    7.6400    7.6500    7.6600    7.6700
    7.6800    7.6900    7.7000    7.7100    7.7200    7.7300    7.7400    7.7500
    7.7600    7.7700    7.7800    7.7900    7.8000    7.8100    7.8200    7.8300
    7.8400    7.8500    7.8600    7.8700    7.8800    7.8900    7.9000    7.9100
    7.9200    7.9300    7.9400    7.9500    7.9600    7.9700    7.9800    7.9900
    8.0000    8.0100    8.0200    8.0300    8.0400    8.0500    8.0600    8.0700
    8.0800    8.0900    8.1000    8.1100    8.1200    8.1300    8.1400    8.1500
    8.1600    8.1700    8.1800    8.1900    8.2000    8.2100    8.2200    8.2300
    8.2400    8.2500    8.2600    8.2700    8.2800    8.2900    8.3000    8.3100
   </PP_R>
   <PP_RAB type="real"  size=" 832" columns="8">
    0.0100    0.0100    0.0100    0.0100    0.0100    0.0100    0.0100    0.0100
    0.0100    0.0100    0.0100    0.0100    0.0100    0.0100    0.0100    0.0100
    0.0100    0.0100    0.0100    0.0100    0.0100    0.0100    0.0100    0.0100
    0.0100    0.0100    0.0100    0.0100    0.0100    0.0100    0.0100    0.0100
    0.0100    0.0100    0.0100    0.0100    0.0100    0.0100    0.0100    0.0100
    0.0100    0.0100    0.0100    0.0100    0.0100    0.0100    0.0100    0.0100
    0.0100    0.0100    0.0100    0.0100    0.0100    0.0100    0.0100    0.0100
    0.0100    0.0100    0.0100    0.0100    0.0100    0.0100    0.0100    0.0100
    0.0100    0.0100    0.0100    0.0100    0.0100    0.0100    0.0100    0.0100
    0.0100    0.0100    0.0100    0.0100    0.0100    0.0100    0.0100    0.0100
    0.0100    0.0100    0.0100    0.0100    0.0100    0.0100    0.0100    0.0100
    0.0100    0.0100    0.0100    0.0100    0.0100    0.0100    0.0100    0.0100
    0.0100    0.0100    0.0100    0.0100    0.0100    0.0100    0.0100    0.0100
    0.0100    0.0100    0.0100    0.0100    0.0100    0.0100    0.0100    0.0100
    0.0100    0.0100    0.0100    0.0100    0.0100    0.0100    0.0100    0.0100
    0.0100    0.0100    0.0100    0.0100    0.0100    0.0100    0.0100    0.0100
    0.0100    0.0100    0.0100    0.0100    0.0100    0.0100    0.0100    0.0100
    0.0100    0.0100    0.0100    0.0100    0.0100    0.0100    0.0100    0.0100
    0.0100    0.0100    0.0100    0.0100    0.0100    0.0100    0.0100    0.0100
    0.0100    0.0100    0.0100    0.0100    0.0100    0.0100    0.0100    0.0100
    0.0100    0.0100    0.0100    0.0100    0.0100    0.0100    0.0100    0.0100
    0.0100    0.0100    0.0100    0.0100    0.0100    0.0100    0.0100    0.0100
    0.0100    0.0100    0.0100    0.0100    0.0100    0.0100    0.0100    0.0100
    0.0100    0.0100    0.0100    0.0100    0.0100    0.0100    0.0100    0.0100
    0.0100    0.0100    0.0100    0.0100    0.0100    0.0100    0.0100    0.0100
    0.0100    0.0100    0.0100    0.0100    0.0100    0.0100    0.0100    0.0100
    0.0100    0.0100    0.0100    0.0100    0.0100    0.0100    0.0100    0.0100
    0.0100    0.0100    0.0100    0.0100    0.0100    0.0100    0.0100    0.0100
    0.0100    0.0100    0.0100    0.0100    0.0100    0.0100    0.0100    0.0100
    0.0100    0.0100    0.0100    0.0100    0.0100    0.0100    0.0100    0.0100
    0.0100    0.0100    0.0100    0.0100    0.0100    0.0100    0.0100    0.0100
    0.0100    0.0100    0.0100    0.0100    0.0100    0.0100    0.0100    0.0100
    0.0100    0.0100    0.0100    0.0100    0.0100    0.0100    0.0100    0.0100
    0.0100    0.0100    0.0100    0.0100    0.0100    0.0100    0.0100    0.0100
    0.0100    0.0100    0.0100    0.0100    0.0100    0.0100    0.0100    0.0100
    0.0100    0.0100    0.0100    0.0100    0.0100    0.0100    0.0100    0.0100
    0.0100    0.0100    0.0100    0.0100    0.0100    0.0100    0.0100    0.0100
    0.0100    0.0100    0.0100    0.0100    0.0100    0.0100    0.0100    0.0100
    0.0100    0.0100    0.0100    0.0100    0.0100    0.0100    0.0100    0.0100
    0.0100    0.0100    0.0100    0.0100    0.0100    0.0100    0.0100    0.0100
    0.0100    0.0100    0.0100    0.0100    0.0100    0.0100    0.0100    0.0100
    0.0100    0.0100    0.0100    0.0100    0.0100    0.0100    0.0100    0.0100
    0.0100    0.0100    0.0100    0.0100    0.0100    0.0100    0.0100    0.0100
    0.0100    0.0100    0.0100    0.0100    0.0100    0.0100    0.0100    0.0100
    0.0100    0.0100    0.0100    0.0100    0.0100    0.0100    0.0100    0.0100
    0.0100    0.0100    0.0100    0.0100    0.0100    0.0100    0.0100    0.0100
    0.0100    0.0100    0.0100    0.0100    0.0100    0.0100    0.0100    0.0100
    0.0100    0.0100    0.0100    0.0100    0.0100    0.0100    0.0100    0.0100
    0.0100    0.0100    0.0100    0.0100    0.0100    0.0100    0.0100    0.0100
    0.0100    0.0100    0.0100    0.0100    0.0100    0.0100    0.0100    0.0100
    0.0100    0.0100    0.0100    0.0100    0.0100    0.0100    0.0100    0.0100
    0.0100    0.0100    0.0100    0.0100    0.0100    0.0100    0.0100    0.0100
    0.0100    0.0100    0.0100    0.0100    0.0100    0.0100    0.0100    0.0100
    0.0100    0.0100    0.0100    0.0100    0.0100    0.0100    0.0100    0.0100
    0.0100    0.0100    0.0100    0.0100    0.0100    0.0100    0.0100    0.0100
    0.0100    0.0100    0.0100    0.0100    0.0100    0.0100    0.0100    0.0100
    0.0100    0.0100    0.0100    0.0100    0.0100    0.0100    0.0100    0.0100
    0.0100    0.0100    0.0100    0.0100    0.0100    0.0100    0.0100    0.0100
    0.0100    0.0100    0.0100    0.0100    0.0100    0.0100    0.0100    0.0100
    0.0100    0.0100    0.0100    0.0100    0.0100    0.0100    0.0100    0.0100
    0.0100    0.0100    0.0100    0.0100    0.0100    0.0100    0.0100    0.0100
    0.0100    0.0100    0.0100    0.0100    0.0100    0.0100    0.0100    0.0100
    0.0100    0.0100    0.0100    0.0100    0.0100    0.0100    0.0100    0.0100
    0.0100    0.0100    0.0100    0.0100    0.0100    0.0100    0.0100    0.0100
    0.0100    0.0100    0.0100    0.0100    0.0100    0.0100    0.0100    0.0100
    0.0100    0.0100    0.0100    0.0100    0.0100    0.0100    0.0100    0.0100
    0.0100    0.0100    0.0100    0.0100    0.0100    0.0100    0.0100    0.0100
    0.0100    0.0100    0.0100    0.0100    0.0100    0.0100    0.0100    0.0100
    0.0100    0.0100    0.0100    0.0100    0.0100    0.0100    0.0100    0.0100
    0.0100    0.0100    0.0100    0.0100    0.0100    0.0100    0.0100    0.0100
    0.0100    0.0100    0.0100    0.0100    0.0100    0.0100    0.0100    0.0100
    0.0100    0.0100    0.0100    0.0100    0.0100    0.0100    0.0100    0.0100
    0.0100    0.0100    0.0100    0.0100    0.0100    0.0100    0.0100    0.0100
    0.0100    0.0100    0.0100    0.0100    0.0100    0.0100    0.0100    0.0100
    0.0100    0.0100    0.0100    0.0100    0.0100    0.0100    0.0100    0.0100
    0.0100    0.0100    0.0100    0.0100    0.0100    0.0100    0.0100    0.0100
    0.0100    0.0100    0.0100    0.0100    0.0100    0.0100    0.0100    0.0100
    0.0100    0.0100    0.0100    0.0100    0.0100    0.0100    0.0100    0.0100
    0.0100    0.0100    0.0100    0.0100    0.0100    0.0100    0.0100    0.0100
    0.0100    0.0100    0.0100    0.0100    0.0100    0.0100    0.0100    0.0100
    0.0100    0.0100    0.0100    0.0100    0.0100    0.0100    0.0100    0.0100
    0.0100    0.0100    0.0100    0.0100    0.0100    0.0100    0.0100    0.0100
    0.0100    0.0100    0.0100    0.0100    0.0100    0.0100    0.0100    0.0100
    0.0100    0.0100    0.0100    0.0100    0.0100    0.0100    0.0100    0.0100
    0.0100    0.0100    0.0100    0.0100    0.0100    0.0100    0.0100    0.0100
    0.0100    0.0100    0.0100    0.0100    0.0100    0.0100    0.0100    0.0100
    0.0100    0.0100    0.0100    0.0100    0.0100    0.0100    0.0100    0.0100
    0.0100    0.0100    0.0100    0.0100    0.0100    0.0100    0.0100    0.0100
    0.0100    0.0100    0.0100    0.0100    0.0100    0.0100    0.0100    0.0100
    0.0100    0.0100    0.0100    0.0100    0.0100    0.0100    0.0100    0.0100
    0.0100    0.0100    0.0100    0.0100    0.0100    0.0100    0.0100    0.0100
    0.0100    0.0100    0.0100    0.0100    0.0100    0.0100    0.0100    0.0100
    0.0100    0.0100    0.0100    0.0100    0.0100    0.0100    0.0100    0.0100
    0.0100    0.0100    0.0100    0.0100    0.0100    0.0100    0.0100    0.0100
    0.0100    0.0100    0.0100    0.0100    0.0100    0.0100    0.0100    0.0100
    0.0100    0.0100    0.0100    0.0100    0.0100    0.0100    0.0100    0.0100
    0.0100    0.0100    0.0100    0.0100    0.0100    0.0100    0.0100    0.0100
    0.0100    0.0100    0.0100    0.0100    0.0100    0.0100    0.0100    0.0100
    0.0100    0.0100    0.0100    0.0100    0.0100    0.0100    0.0100    0.0100
    0.0100    0.0100    0.0100    0.0100    0.0100    0.0100    0.0100    0.0100
    0.0100    0.0100    0.0100    0.0100    0.0100    0.0100    0.0100    0.0100
    0.0100    0.0100    0.0100    0.0100    0.0100    0.0100    0.0100    0.0100
    0.0100    0.0100    0.0100    0.0100    0.0100    0.0100    0.0100    0.0100
    0.0100    0.0100    0.0100    0.0100    0.0100    0.0100    0.0100    0.0100
   </PP_RAB>
 </PP_MESH>
  <PP_LOCAL type="real"  size=" 832" columns="4">
   -3.1540030589E+01   -3.1591851786E+01   -3.1734330511E+01   -3.1902803184E+01
   -3.2043583359E+01   -3.2129235996E+01   -3.2155578978E+01   -3.2130690344E+01
   -3.2066199708E+01   -3.1972865198E+01   -3.1859091269E+01   -3.1730873170E+01
   -3.1592254031E+01   -3.1445866373E+01   -3.1293396103E+01   -3.1135929430E+01
   -3.0974191544E+01   -3.0808700576E+01   -3.0639861025E+01   -3.0468016634E+01
   -3.0293477627E+01   -3.0116532659E+01   -2.9937452282E+01   -2.9756488148E+01
   -2.9573870388E+01   -2.9389804418E+01   -2.9204467730E+01   -2.9018006810E+01
   -2.8830534153E+01   -2.8642125335E+01   -2.8452816151E+01   -2.8262599952E+01
   -2.8071425482E+01   -2.7879195600E+01   -2.7685767426E+01   -2.7490954451E+01
   -2.7294531091E+01   -2.7096240055E+01   -2.6895802584E+01   -2.6692931344E+01
   -2.6487345319E+01   -2.6278785766E+01   -2.6067031956E+01   -2.5851915388E+01
   -2.5633331169E+01   -2.5411245578E+01   -2.5185699192E+01   -2.4956805501E+01
   -2.4724745385E+01   -2.4489758253E+01   -2.4252130888E+01   -2.4012185156E+01
   -2.3770265650E+01   -2.3526728167E+01   -2.3281929676E+01   -2.3036220141E+01
   -2.2789936348E+01   -2.2543397646E+01   -2.2296903412E+01   -2.2050731950E+01
   -2.1805140490E+01   -2.1560366005E+01   -2.1316626541E+01   -2.1074122852E+01
   -2.0833040140E+01   -2.0593549785E+01   -2.0355810959E+01   -2.0119972072E+01
   -1.9886172026E+01   -1.9654541260E+01   -1.9425202597E+01   -1.9198271897E+01
   -1.8973858546E+01   -1.8752065793E+01   -1.8532990962E+01   -1.8316725550E+01
   -1.8103355250E+01   -1.7892959884E+01   -1.7685613299E+01   -1.7481383199E+01
   -1.7280330961E+01   -1.7082511411E+01   -1.6887972592E+01   -1.6696755512E+01
   -1.6508893890E+01   -1.6324413886E+01   -1.6143333841E+01   -1.5965664003E+01
   -1.5791406259E+01   -1.5620553864E+01   -1.5453091165E+01   -1.5288993333E+01
   -1.5128226082E+01   -1.4970745391E+01   -1.4816497221E+01   -1.4665417229E+01
   -1.4517430485E+01   -1.4372451179E+01   -1.4230382401E+01   -1.4091122553E+01
   -1.3954572810E+01   -1.3820639290E+01   -1.3689232351E+01   -1.3560266561E+01
   -1.3433660535E+01   -1.3309336772E+01   -1.3187221504E+01   -1.3067244548E+01
   -1.2949339159E+01   -1.2833441887E+01   -1.2719492444E+01   -1.2607433569E+01
   -1.2497210902E+01   -1.2388772860E+01   -1.2282070520E+01   -1.2177057503E+01
   -1.2073689866E+01   -1.1971925997E+01   -1.1871726510E+01   -1.1773054149E+01
   -1.1675873687E+01   -1.1580151829E+01   -1.1485857120E+01   -1.1392959842E+01
   -1.1301431923E+01   -1.1211246831E+01   -1.1122379478E+01   -1.1034806113E+01
   -1.0948504214E+01   -1.0863452379E+01   -1.0779630218E+01   -1.0697018229E+01
   -1.0615597695E+01   -1.0535350560E+01   -1.0456259316E+01   -1.0378306894E+01
   -1.0301476552E+01   -1.0225751775E+01   -1.0151116174E+01   -1.0077553403E+01
   -1.0005047076E+01   -9.9335807046E+00   -9.8631376371E+00   -9.7937010202E+00
   -9.7252537685E+00   -9.6577785504E+00   -9.5912577862E+00   -9.5256736612E+00
   -9.4610081499E+00   -9.3972430532E+00   -9.3343600448E+00   -9.2723407277E+00
   -9.2111666962E+00   -9.1508196045E+00   -9.0912812375E+00   -9.0325335854E+00
   -8.9745589108E+00   -8.9173398211E+00   -8.8608593318E+00   -8.8051009365E+00
   -8.7500487223E+00   -8.6956874152E+00   -8.6420023717E+00   -8.5889795802E+00
   -8.5366056341E+00   -8.4848677320E+00   -8.4337536721E+00   -8.3832518186E+00
   -8.3333511201E+00   -8.2840409671E+00   -8.2353109789E+00   -8.1871509926E+00
   -8.1395510484E+00   -8.0925013920E+00   -8.0459925274E+00   -8.0000151970E+00
   -7.9545603440E+00   -7.9096191097E+00   -7.8651828368E+00   -7.8212430628E+00
   -7.7777915124E+00   -7.7348200935E+00   -7.6923208917E+00   -7.6502861656E+00
   -7.6087083423E+00   -7.5675800122E+00   -7.5268939255E+00   -7.4866429873E+00
   -7.4468202535E+00   -7.4074189273E+00   -7.3684323548E+00   -7.3298540213E+00
   -7.2916775482E+00   -7.2538966887E+00   -7.2165053251E+00   -7.1794974652E+00
   -7.1428672388E+00   -7.1066088951E+00   -7.0707167995E+00   -7.0351854307E+00
   -7.0000093776E+00   -6.9651833370E+00   -6.9307021106E+00   -6.8965606027E+00
   -6.8627538173E+00   -6.8292768559E+00   -6.7961249154E+00   -6.7632932852E+00
   -6.7307773453E+00   -6.6985725645E+00   -6.6666744974E+00   -6.6350787831E+00
   -6.6037811432E+00   -6.5727773793E+00   -6.5420633716E+00   -6.5116350771E+00
   -6.4814885273E+00   -6.4516198273E+00   -6.4220251534E+00   -6.3927007518E+00
   -6.3636429369E+00   -6.3348480899E+00   -6.3063126571E+00   -6.2780331487E+00
   -6.2500061371E+00   -6.2222282557E+00   -6.1946961973E+00   -6.1674067131E+00
   -6.1403566115E+00   -6.1135427564E+00   -6.0869620664E+00   -6.0606115135E+00
   -6.0344881215E+00   -6.0085889655E+00   -5.9829111706E+00   -5.9574519111E+00
   -5.9322084092E+00   -5.9071779336E+00   -5.8823577990E+00   -5.8577453653E+00
   -5.8333380360E+00   -5.8091332581E+00   -5.7851285206E+00   -5.7613213538E+00
   -5.7377093286E+00   -5.7142900555E+00   -5.6910611838E+00   -5.6680204009E+00
   -5.6451654317E+00   -5.6224940373E+00   -5.6000040149E+00   -5.5776931966E+00
   -5.5555594491E+00   -5.5336006727E+00   -5.5118148008E+00   -5.4901997992E+00
   -5.4687536656E+00   -5.4474744286E+00   -5.4263601478E+00   -5.4054089122E+00
   -5.3846188408E+00   -5.3639880809E+00   -5.3435148084E+00   -5.3231972268E+00
   -5.3030335670E+00   -5.2830220864E+00   -5.2631610688E+00   -5.2434488234E+00
   -5.2238836849E+00   -5.2044640128E+00   -5.1851881907E+00   -5.1660546262E+00
   -5.1470617503E+00   -5.1282080169E+00   -5.1094919025E+00   -5.0909119060E+00
   -5.0724665476E+00   -5.0541543692E+00   -5.0359739337E+00   -5.0179238244E+00
   -5.0000026450E+00   -4.9822090190E+00   -4.9645415894E+00   -4.9469990184E+00
   -4.9295799872E+00   -4.9122831953E+00   -4.8951073604E+00   -4.8780512182E+00
   -4.8611135219E+00   -4.8442930419E+00   -4.8275885657E+00   -4.8109988973E+00
   -4.7945228572E+00   -4.7781592819E+00   -4.7619070239E+00   -4.7457649510E+00
   -4.7297319467E+00   -4.7138069090E+00   -4.6979887512E+00   -4.6822764008E+00
   -4.6666687998E+00   -4.6511649041E+00   -4.6357636836E+00   -4.6204641216E+00
   -4.6052652150E+00   -4.5901659736E+00   -4.5751654205E+00   -4.5602625911E+00
   -4.5454565336E+00   -4.5307463085E+00   -4.5161309883E+00   -4.5016096577E+00
   -4.4871814127E+00   -4.4728453613E+00   -4.4586006226E+00   -4.4444463269E+00
   -4.4303816157E+00   -4.4164056410E+00   -4.4025175657E+00   -4.3887165633E+00
   -4.3750018173E+00   -4.3613725217E+00   -4.3478278803E+00   -4.3343671069E+00
   -4.3209894249E+00   -4.3076940672E+00   -4.2944802764E+00   -4.2813473040E+00
   -4.2682944110E+00   -4.2553208669E+00   -4.2424259506E+00   -4.2296089494E+00
   -4.2168691591E+00   -4.2042058843E+00   -4.1916184376E+00   -4.1791061400E+00
   -4.1666683205E+00   -4.1543043161E+00   -4.1420134716E+00   -4.1297951396E+00
   -4.1176486803E+00   -4.1055734613E+00   -4.0935688577E+00   -4.0816342519E+00
   -4.0697690335E+00   -4.0579725991E+00   -4.0462443522E+00   -4.0345837034E+00
   -4.0229900699E+00   -4.0114628757E+00   -4.0000015512E+00   -3.9886055335E+00
   -3.9772742659E+00   -3.9660071983E+00   -3.9548037865E+00   -3.9436634925E+00
   -3.9325857846E+00   -3.9215701367E+00   -3.9106160288E+00   -3.8997229466E+00
   -3.8888903816E+00   -3.8781178308E+00   -3.8674047970E+00   -3.8567507882E+00
   -3.8461553179E+00   -3.8356179050E+00   -3.8251380737E+00   -3.8147153532E+00
   -3.8043492780E+00   -3.7940393875E+00   -3.7837852261E+00   -3.7735863433E+00
   -3.7634422932E+00   -3.7533526348E+00   -3.7433169318E+00   -3.7333347526E+00
   -3.7234056701E+00   -3.7135292618E+00   -3.7037051097E+00   -3.6939328000E+00
   -3.6842119236E+00   -3.6745420754E+00   -3.6649228547E+00   -3.6553538649E+00
   -3.6458347136E+00   -3.6363650125E+00   -3.6269443772E+00   -3.6175724273E+00
   -3.6082487864E+00   -3.5989730820E+00   -3.5897449453E+00   -3.5805640114E+00
   -3.5714299189E+00   -3.5623423104E+00   -3.5533008319E+00   -3.5443051330E+00
   -3.5353548669E+00   -3.5264496903E+00   -3.5175892633E+00   -3.5087732495E+00
   -3.5000013158E+00   -3.4912731323E+00   -3.4825883726E+00   -3.4739467135E+00
   -3.4653478348E+00   -3.4567914197E+00   -3.4482771545E+00   -3.4398047283E+00
   -3.4313738337E+00   -3.4229841659E+00   -3.4146354232E+00   -3.4063273071E+00
   -3.3980595216E+00   -3.3898317738E+00   -3.3816437735E+00   -3.3734952335E+00
   -3.3653858691E+00   -3.3573153986E+00   -3.3492835427E+00   -3.3412900250E+00
   -3.3333345717E+00   -3.3254169115E+00   -3.3175367757E+00   -3.3096938982E+00
   -3.3018880154E+00   -3.2941188661E+00   -3.2863861918E+00   -3.2786897360E+00
   -3.2710292449E+00   -3.2634044671E+00   -3.2558151533E+00   -3.2482610567E+00
   -3.2407419328E+00   -3.2332575392E+00   -3.2258076359E+00   -3.2183919851E+00
   -3.2110103509E+00   -3.2036624999E+00   -3.1963482008E+00   -3.1890672242E+00
   -3.1818193429E+00   -3.1746043318E+00   -3.1674219678E+00   -3.1602720298E+00
   -3.1531542987E+00   -3.1460685574E+00   -3.1390145907E+00   -3.1319921854E+00
   -3.1250011300E+00   -3.1180412152E+00   -3.1111122333E+00   -3.1042139787E+00
   -3.0973462472E+00   -3.0905088368E+00   -3.0837015472E+00   -3.0769241797E+00
   -3.0701765375E+00   -3.0634584254E+00   -3.0567696500E+00   -3.0501100197E+00
   -3.0434793442E+00   -3.0368774352E+00   -3.0303041058E+00   -3.0237591710E+00
   -3.0172424470E+00   -3.0107537520E+00   -3.0042929054E+00   -2.9978597284E+00
   -2.9914540436E+00   -2.9850756752E+00   -2.9787244487E+00   -2.9724001913E+00
   -2.9661027316E+00   -2.9598318996E+00   -2.9535875268E+00   -2.9473694461E+00
   -2.9411774917E+00   -2.9350114995E+00   -2.9288713063E+00   -2.9227567507E+00
   -2.9166676724E+00   -2.9106039125E+00   -2.9045653134E+00   -2.8985517188E+00
   -2.8925629738E+00   -2.8865989246E+00   -2.8806594189E+00   -2.8747443053E+00
   -2.8688534340E+00   -2.8629866563E+00   -2.8571438245E+00   -2.8513247925E+00
   -2.8455294150E+00   -2.8397575483E+00   -2.8340090493E+00   -2.8282837767E+00
   -2.8225815898E+00   -2.8169023493E+00   -2.8112459170E+00   -2.8056121557E+00
   -2.8000009295E+00   -2.7944121034E+00   -2.7888455436E+00   -2.7833011171E+00
   -2.7777786924E+00   -2.7722781386E+00   -2.7667993261E+00   -2.7613421263E+00
   -2.7559064115E+00   -2.7504920552E+00   -2.7450989316E+00   -2.7397269161E+00
   -2.7343758850E+00   -2.7290457156E+00   -2.7237362862E+00   -2.7184474760E+00
   -2.7131791650E+00   -2.7079312343E+00   -2.7027035659E+00   -2.6974960426E+00
   -2.6923085482E+00   -2.6871409675E+00   -2.6819931859E+00   -2.6768650899E+00
   -2.6717565668E+00   -2.6666675047E+00   -2.6615977927E+00   -2.6565473205E+00