<UPF version="2.0.1">
  <PP_INFO>

 This pseudopotential file has been produced using the code
 ONCVPSP  (Optimized Norm-Conservinng Vanderbilt PSeudopotential)
 scalar-relativistic version 3.3.0 08/16/2017 by D. R. Hamann
 The code is available through a link at URL www.mat-simresearch.com.
 Documentation with the package provides a full discription of the
 input data below.


 While it is not required under the terms of the GNU GPL, it is
 suggested that you cite D. R. Hamann, Phys. Rev. B 88, 085117 (2013)
 in any publication using these pseudopotentials.

    <PP_INPUTFILE>
# ATOM AND REFERENCE CONFIGURATION
# atsym  z   nc   nv     iexc    psfile
  F  9.00    1    2       4      upf
#
#   n    l    f        energy (Ha)
    1    0    2.00
    2    0    2.00
    2    1    5.00
#
# PSEUDOPOTENTIAL AND OPTIMIZATION
# lmax
    1
#
#   l,   rc,      ep,       ncon, nbas, qcut
    0   1.56741  -1.09879    5    8   8.73495
    1   1.64712  -0.40834    5    8   8.69707
#
# LOCAL POTENTIAL
# lloc, lpopt,  rc(5),   dvloc0
    4    5   0.96222      0.00000
#
# VANDERBILT-KLEINMAN-BYLANDER PROJECTORs
# l, nproj, debl
    0    2   1.51125
    1    2   1.53167
#
# MODEL CORE CHARGE
# icmod, fcfact, rcfact
    0   0.00000   0.00000
#
# LOG DERIVATIVE ANALYSIS
# epsh1, epsh2, depsh
   -5.00    3.00    0.02
#
# OUTPUT GRID
# rlmax, drl
    6.00    0.01
#
# TEST CONFIGURATIONS
# ncnf
    0
# nvcnf
#   n    l    f
    </PP_INPUTFILE>
  </PP_INFO>
  <!--                               -->
  <!-- END OF HUMAN READABLE SECTION -->
  <!--                               -->
    <PP_HEADER
       generated="Generated using ONCVPSP code by D. R. Hamann"
       author="anonymous"
       date="170818"
       comment=""
       element="F "
       pseudo_type="NC"
       relativistic="scalar"
       is_ultrasoft="F"
       is_paw="F"
       is_coulomb="F"
       has_so="F"
       has_wfc="F"
       has_gipaw="F"
       core_correction="F"
       functional="PBE"
       z_valence="    7.00"
       total_psenergy="  -4.74675008846E+01"
       rho_cutoff="   8.31000000000E+00"
       l_max="1"
       l_local="-1"
       mesh_size="   832"
       number_of_wfc="2"
       number_of_proj="4"/>
 <PP_MESH>
   <PP_R type="real"  size=" 832" columns="8">
    0.0000    0.0100    0.0200    0.0300    0.0400    0.0500    0.0600    0.0700
    0.0800    0.0900    0.1000    0.1100    0.1200    0.1300    0.1400    0.1500
    0.1600    0.1700    0.1800    0.1900    0.2000    0.2100    0.2200    0.2300
    0.2400    0.2500    0.2600    0.2700    0.2800    0.2900    0.3000    0.3100
    0.3200    0.3300    0.3400    0.3500    0.3600    0.3700    0.3800    0.3900
    0.4000    0.4100    0.4200    0.4300    0.4400    0.4500    0.4600    0.4700
    0.4800    0.4900    0.5000    0.5100    0.5200    0.5300    0.5400    0.5500
    0.5600    0.5700    0.5800    0.5900    0.6000    0.6100    0.6200    0.6300
    0.6400    0.6500    0.6600    0.6700    0.6800    0.6900    0.7000    0.7100
    0.7200    0.7300    0.7400    0.7500    0.7600    0.7700    0.7800    0.7900
    0.8000    0.8100    0.8200    0.8300    0.8400    0.8500    0.8600    0.8700
    0.8800    0.8900    0.9000    0.9100    0.9200    0.9300    0.9400    0.9500
    0.9600    0.9700    0.9800    0.9900    1.0000    1.0100    1.0200    1.0300
    1.0400    1.0500    1.0600    1.0700    1.0800    1.0900    1.1000    1.1100
    1.1200    1.1300    1.1400    1.1500    1.1600    1.1700    1.1800    1.1900
    1.2000    1.2100    1.2200    1.2300    1.2400    1.2500    1.2600    1.2700
    1.2800    1.2900    1.3000    1.3100    1.3200    1.3300    1.3400    1.3500
    1.3600    1.3700    1.3800    1.3900    1.4000    1.4100    1.4200    1.4300
    1.4400    1.4500    1.4600    1.4700    1.4800    1.4900    1.5000    1.5100
    1.5200    1.5300    1.5400    1.5500    1.5600    1.5700    1.5800    1.5900
    1.6000    1.6100    1.6200    1.6300    1.6400    1.6500    1.6600    1.6700
    1.6800    1.6900    1.7000    1.7100    1.7200    1.7300    1.7400    1.7500
    1.7600    1.7700    1.7800    1.7900    1.8000    1.8100    1.8200    1.8300
    1.8400    1.8500    1.8600    1.8700    1.8800    1.8900    1.9000    1.9100
    1.9200    1.9300    1.9400    1.9500    1.9600    1.9700    1.9800    1.9900
    2.0000    2.0100    2.0200    2.0300    2.0400    2.0500    2.0600    2.0700
    2.0800    2.0900    2.1000    2.1100    2.1200    2.1300    2.1400    2.1500
    2.1600    2.1700    2.1800    2.1900    2.2000    2.2100    2.2200    2.2300
    2.2400    2.2500    2.2600    2.2700    2.2800    2.2900    2.3000    2.3100
    2.3200    2.3300    2.3400    2.3500    2.3600    2.3700    2.3800    2.3900
    2.4000    2.4100    2.4200    2.4300    2.4400    2.4500    2.4600    2.4700
    2.4800    2.4900    2.5000    2.5100    2.5200    2.5300    2.5400    2.5500
    2.5600    2.5700    2.5800    2.5900    2.6000    2.6100    2.6200    2.6300
    2.6400    2.6500    2.6600    2.6700    2.6800    2.6900    2.7000    2.7100
    2.7200    2.7300    2.7400    2.7500    2.7600    2.7700    2.7800    2.7900
    2.8000    2.8100    2.8200    2.8300    2.8400    2.8500    2.8600    2.8700
    2.8800    2.8900    2.9000    2.9100    2.9200    2.9300    2.9400    2.9500
    2.9600    2.9700    2.9800    2.9900    3.0000    3.0100    3.0200    3.0300
    3.0400    3.0500    3.0600    3.0700    3.0800    3.0900    3.1000    3.1100
    3.1200    3.1300    3.1400    3.1500    3.1600    3.1700    3.1800    3.1900
    3.2000    3.2100    3.2200    3.2300    3.2400    3.2500    3.2600    3.2700
    3.2800    3.2900    3.3000    3.3100    3.3200    3.3300    3.3400    3.3500
    3.3600    3.3700    3.3800    3.3900    3.4000    3.4100    3.4200    3.4300
    3.4400    3.4500    3.4600    3.4700    3.4800    3.4900    3.5000    3.5100
    3.5200    3.5300    3.5400    3.5500    3.5600    3.5700    3.5800    3.5900
    3.6000    3.6100    3.6200    3.6300    3.6400    3.6500    3.6600    3.6700
    3.6800    3.6900    3.7000    3.7100    3.7200    3.7300    3.7400    3.7500
    3.7600    3.7700    3.7800    3.7900    3.8000    3.8100    3.8200    3.8300
    3.8400    3.8500    3.8600    3.8700    3.8800    3.8900    3.9000    3.9100
    3.9200    3.9300    3.9400    3.9500    3.9600    3.9700    3.9800    3.9900
    4.0000    4.0100    4.0200    4.0300    4.0400    4.0500    4.0600    4.0700
    4.0800    4.0900    4.1000    4.1100    4.1200    4.1300    4.1400    4.1500
    4.1600    4.1700    4.1800    4.1900    4.2000    4.2100    4.2200    4.2300
    4.2400    4.2500    4.2600    4.2700    4.2800    4.2900    4.3000    4.3100
    4.3200    4.3300    4.3400    4.3500    4.3600    4.3700    4.3800    4.3900
    4.4000    4.4100    4.4200    4.4300    4.4400    4.4500    4.4600    4.4700
    4.4800    4.4900    4.5000    4.5100    4.5200    4.5300    4.5400    4.5500
    4.5600    4.5700    4.5800    4.5900    4.6000    4.6100    4.6200    4.6300
    4.6400    4.6500    4.6600    4.6700    4.6800    4.6900    4.7000    4.7100
    4.7200    4.7300    4.7400    4.7500    4.7600    4.7700    4.7800    4.7900
    4.8000    4.8100    4.8200    4.8300    4.8400    4.8500    4.8600    4.8700
    4.8800    4.8900    4.9000    4.9100    4.9200    4.9300    4.9400    4.9500
    4.9600    4.9700    4.9800    4.9900    5.0000    5.0100    5.0200    5.0300
    5.0400    5.0500    5.0600    5.0700    5.0800    5.0900    5.1000    5.1100
    5.1200    5.1300    5.1400    5.1500    5.1600    5.1700    5.1800    5.1900
    5.2000    5.2100    5.2200    5.2300    5.2400    5.2500    5.2600    5.2700
    5.2800    5.2900    5.3000    5.3100    5.3200    5.3300    5.3400    5.3500
    5.3600    5.3700    5.3800    5.3900    5.4000    5.4100    5.4200    5.4300
    5.4400    5.4500    5.4600    5.4700    5.4800    5.4900    5.5000    5.5100
    5.5200    5.5300    5.5400    5.5500    5.5600    5.5700    5.5800    5.5900
    5.6000    5.6100    5.6200    5.6300    5.6400    5.6500    5.6600    5.6700
    5.6800    5.6900    5.7000    5.7100    5.7200    5.7300    5.7400    5.7500
    5.7600    5.7700    5.7800    5.7900    5.8000    5.8100    5.8200    5.8300
    5.8400    5.8500    5.8600    5.8700    5.8800    5.8900    5.9000    5.9100
    5.9200    5.9300    5.9400    5.9500    5.9600    5.9700    5.9800    5.9900
    6.0000    6.0100    6.0200    6.0300    6.0400    6.0500    6.0600    6.0700
    6.0800    6.0900    6.1000    6.1100    6.1200    6.1300    6.1400    6.1500
    6.1600    6.1700    6.1800    6.1900    6.2000    6.2100    6.2200    6.2300
    6.2400    6.2500    6.2600    6.2700    6.2800    6.2900    6.3000    6.3100
    6.3200    6.3300    6.3400    6.3500    6.3600    6.3700    6.3800    6.3900
    6.4000    6.4100    6.4200    6.4300    6.4400    6.4500    6.4600    6.4700
    6.4800    6.4900    6.5000    6.5100    6.5200    6.5300    6.5400    6.5500
    6.5600    6.5700    6.5800    6.5900    6.6000    6.6100    6.6200    6.6300
    6.6400    6.6500    6.6600    6.6700    6.6800    6.6900    6.7000    6.7100
    6.7200    6.7300    6.7400    6.7500    6.7600    6.7700    6.7800    6.7900
    6.8000    6.8100    6.8200    6.8300    6.8400    6.8500    6.8600    6.8700
    6.8800    6.8900    6.9000    6.9100    6.9200    6.9300    6.9400    6.9500
    6.9600    6.9700    6.9800    6.9900    7.0000    7.0100    7.0200    7.0300
    7.0400    7.0500    7.0600    7.0700    7.0800    7.0900    7.1000    7.1100
    7.1200    7.1300    7.1400    7.1500    7.1600    7.1700    7.1800    7.1900
    7.2000    7.2100    7.2200    7.2300    7.2400    7.2500    7.2600    7.2700
    7.2800    7.2900    7.3000    7.3100    7.3200    7.3300    7.3400    7.3500
    7.3600    7.3700    7.3800    7.3900    7.4000    7.4100    7.4200    7.4300
    7.4400    7.4500    7.4600    7.4700    7.4800    7.4900    7.5000    7.5100
    7.5200    7.5300    7.5400    7.5500    7.5600    7.5700    7.5800    7.5900
    7.6000    7.6100    7.6200    7.6300    7.6400    7.6500    7.6600    7.6700
    7.6800    7.6900    7.7000    7.7100    7.7200    7.7300    7.7400    7.7500
    7.7600    7.7700    7.7800    7.7900    7.8000    7.8100    7.8200    7.8300
    7.8400    7.8500    7.8600    7.8700    7.8800    7.8900    7.9000    7.9100
    7.9200    7.9300    7.9400    7.9500    7.9600    7.9700    7.9800    7.9900
    8.0000    8.0100    8.0200    8.0300    8.0400    8.0500    8.0600    8.0700
    8.0800    8.0900    8.1000    8.1100    8.1200    8.1300    8.1400    8.1500
    8.1600    8.1700    8.1800    8.1900    8.2000    8.2100    8.2200    8.2300
    8.2400    8.2500    8.2600    8.2700    8.2800    8.2900    8.3000    8.3100
   </PP_R>
   <PP_RAB type="real"  size=" 832" columns="8">
    0.0100    0.0100    0.0100    0.0100    0.0100    0.0100    0.0100    0.0100
    0.0100    0.0100    0.0100    0.0100    0.0100    0.0100    0.0100    0.0100
    0.0100    0.0100    0.0100    0.0100    0.0100    0.0100    0.0100    0.0100
    0.0100    0.0100    0.0100    0.0100    0.0100    0.0100    0.0100    0.0100
    0.0100    0.0100    0.0100    0.0100    0.0100    0.0100    0.0100    0.0100
    0.0100    0.0100    0.0100    0.0100    0.0100    0.0100    0.0100    0.0100
    0.0100    0.0100    0.0100    0.0100    0.0100    0.0100    0.0100    0.0100
    0.0100    0.0100    0.0100    0.0100    0.0100    0.0100    0.0100    0.0100
    0.0100    0.0100    0.0100    0.0100    0.0100    0.0100    0.0100    0.0100
    0.0100    0.0100    0.0100    0.0100    0.0100    0.0100    0.0100    0.0100
    0.0100    0.0100    0.0100    0.0100    0.0100    0.0100    0.0100    0.0100
    0.0100    0.0100    0.0100    0.0100    0.0100    0.0100    0.0100    0.0100
    0.0100    0.0100    0.0100    0.0100    0.0100    0.0100    0.0100    0.0100
    0.0100    0.0100    0.0100    0.0100    0.0100    0.0100    0.0100    0.0100
    0.0100    0.0100    0.0100    0.0100    0.0100    0.0100    0.0100    0.0100
    0.0100    0.0100    0.0100    0.0100    0.0100    0.0100    0.0100    0.0100
    0.0100    0.0100    0.0100    0.0100    0.0100    0.0100    0.0100    0.0100
    0.0100    0.0100    0.0100    0.0100    0.0100    0.0100    0.0100    0.0100
    0.0100    0.0100    0.0100    0.0100    0.0100    0.0100    0.0100    0.0100
    0.0100    0.0100    0.0100    0.0100    0.0100    0.0100    0.0100    0.0100
    0.0100    0.0100    0.0100    0.0100    0.0100    0.0100    0.0100    0.0100
    0.0100    0.0100    0.0100    0.0100    0.0100    0.0100    0.0100    0.0100
    0.0100    0.0100    0.0100    0.0100    0.0100    0.0100    0.0100    0.0100
    0.0100    0.0100    0.0100    0.0100    0.0100    0.0100    0.0100    0.0100
    0.0100    0.0100    0.0100    0.0100    0.0100    0.0100    0.0100    0.0100
    0.0100    0.0100    0.0100    0.0100    0.0100    0.0100    0.0100    0.0100
    0.0100    0.0100    0.0100    0.0100    0.0100    0.0100    0.0100    0.0100
    0.0100    0.0100    0.0100    0.0100    0.0100    0.0100    0.0100    0.0100
    0.0100    0.0100    0.0100    0.0100    0.0100    0.0100    0.0100    0.0100
    0.0100    0.0100    0.0100    0.0100    0.0100    0.0100    0.0100    0.0100
    0.0100    0.0100    0.0100    0.0100    0.0100    0.0100    0.0100    0.0100
    0.0100    0.0100    0.0100    0.0100    0.0100    0.0100    0.0100    0.0100
    0.0100    0.0100    0.0100    0.0100    0.0100    0.0100    0.0100    0.0100
    0.0100    0.0100    0.0100    0.0100    0.0100    0.0100    0.0100    0.0100
    0.0100    0.0100    0.0100    0.0100    0.0100    0.0100    0.0100    0.0100
    0.0100    0.0100    0.0100    0.0100    0.0100    0.0100    0.0100    0.0100
    0.0100    0.0100    0.0100    0.0100    0.0100    0.0100    0.0100    0.0100
    0.0100    0.0100    0.0100    0.0100    0.0100    0.0100    0.0100    0.0100
    0.0100    0.0100    0.0100    0.0100    0.0100    0.0100    0.0100    0.0100
    0.0100    0.0100    0.0100    0.0100    0.0100    0.0100    0.0100    0.0100
    0.0100    0.0100    0.0100    0.0100    0.0100    0.0100    0.0100    0.0100
    0.0100    0.0100    0.0100    0.0100    0.0100    0.0100    0.0100    0.0100
    0.0100    0.0100    0.0100    0.0100    0.0100    0.0100    0.0100    0.0100
    0.0100    0.0100    0.0100    0.0100    0.0100    0.0100    0.0100    0.0100
    0.0100    0.0100    0.0100    0.0100    0.0100    0.0100    0.0100    0.0100
    0.0100    0.0100    0.0100    0.0100    0.0100    0.0100    0.0100    0.0100
    0.0100    0.0100    0.0100    0.0100    0.0100    0.0100    0.0100    0.0100
    0.0100    0.0100    0.0100    0.0100    0.0100    0.0100    0.0100    0.0100
    0.0100    0.0100    0.0100    0.0100    0.0100    0.0100    0.0100    0.0100
    0.0100    0.0100    0.0100    0.0100    0.0100    0.0100    0.0100    0.0100
    0.0100    0.0100    0.0100    0.0100    0.0100    0.0100    0.0100    0.0100
    0.0100    0.0100    0.0100    0.0100    0.0100    0.0100    0.0100    0.0100
    0.0100    0.0100    0.0100    0.0100    0.0100    0.0100    0.0100    0.0100
    0.0100    0.0100    0.0100    0.0100    0.0100    0.0100    0.0100    0.0100
    0.0100    0.0100    0.0100    0.0100    0.0100    0.0100    0.0100    0.0100
    0.0100    0.0100    0.0100    0.0100    0.0100    0.0100    0.0100    0.0100
    0.0100    0.0100    0.0100    0.0100    0.0100    0.0100    0.0100    0.0100
    0.0100    0.0100    0.0100    0.0100    0.0100    0.0100    0.0100    0.0100
    0.0100    0.0100    0.0100    0.0100    0.0100    0.0100    0.0100    0.0100
    0.0100    0.0100    0.0100    0.0100    0.0100    0.0100    0.0100    0.0100
    0.0100    0.0100    0.0100    0.0100    0.0100    0.0100    0.0100    0.0100
    0.0100    0.0100    0.0100    0.0100    0.0100    0.0100    0.0100    0.0100
    0.0100    0.0100    0.0100    0.0100    0.0100    0.0100    0.0100    0.0100
    0.0100    0.0100    0.0100    0.0100    0.0100    0.0100    0.0100    0.0100
    0.0100    0.0100    0.0100    0.0100    0.0100    0.0100    0.0100    0.0100
    0.0100    0.0100    0.0100    0.0100    0.0100    0.0100    0.0100    0.0100
    0.0100    0.0100    0.0100    0.0100    0.0100    0.0100    0.0100    0.0100
    0.0100    0.0100    0.0100    0.0100    0.0100    0.0100    0.0100    0.0100
    0.0100    0.0100    0.0100    0.0100    0.0100    0.0100    0.0100    0.0100
    0.0100    0.0100    0.0100    0.0100    0.0100    0.0100    0.0100    0.0100
    0.0100    0.0100    0.0100    0.0100    0.0100    0.0100    0.0100    0.0100
    0.0100    0.0100    0.0100    0.0100    0.0100    0.0100    0.0100    0.0100
    0.0100    0.0100    0.0100    0.0100    0.0100    0.0100    0.0100    0.0100
    0.0100    0.0100    0.0100    0.0100    0.0100    0.0100    0.0100    0.0100
    0.0100    0.0100    0.0100    0.0100    0.0100    0.0100    0.0100    0.0100
    0.0100    0.0100    0.0100    0.0100    0.0100    0.0100    0.0100    0.0100
    0.0100    0.0100    0.0100    0.0100    0.0100    0.0100    0.0100    0.0100
    0.0100    0.0100    0.0100    0.0100    0.0100    0.0100    0.0100    0.0100
    0.0100    0.0100    0.0100    0.0100    0.0100    0.0100    0.0100    0.0100
    0.0100    0.0100    0.0100    0.0100    0.0100    0.0100    0.0100    0.0100
    0.0100    0.0100    0.0100    0.0100    0.0100    0.0100    0.0100    0.0100
    0.0100    0.0100    0.0100    0.0100    0.0100    0.0100    0.0100    0.0100
    0.0100    0.0100    0.0100    0.0100    0.0100    0.0100    0.0100    0.0100
    0.0100    0.0100    0.0100    0.0100    0.0100    0.0100    0.0100    0.0100
    0.0100    0.0100    0.0100    0.0100    0.0100    0.0100    0.0100    0.0100
    0.0100    0.0100    0.0100    0.0100    0.0100    0.0100    0.0100    0.0100
    0.0100    0.0100    0.0100    0.0100    0.0100    0.0100    0.0100    0.0100
    0.0100    0.0100    0.0100    0.0100    0.0100    0.0100    0.0100    0.0100
    0.0100    0.0100    0.0100    0.0100    0.0100    0.0100    0.0100    0.0100
    0.0100    0.0100    0.0100    0.0100    0.0100    0.0100    0.0100    0.0100
    0.0100    0.0100    0.0100    0.0100    0.0100    0.0100    0.0100    0.0100
    0.0100    0.0100    0.0100    0.0100    0.0100    0.0100    0.0100    0.0100
    0.0100    0.0100    0.0100    0.0100    0.0100    0.0100    0.0100    0.0100
    0.0100    0.0100    0.0100    0.0100    0.0100    0.0100    0.0100    0.0100
    0.0100    0.0100    0.0100    0.0100    0.0100    0.0100    0.0100    0.0100
    0.0100    0.0100    0.0100    0.0100    0.0100    0.0100    0.0100    0.0100
    0.0100    0.0100    0.0100    0.0100    0.0100    0.0100    0.0100    0.0100
    0.0100    0.0100    0.0100    0.0100    0.0100    0.0100    0.0100    0.0100
    0.0100    0.0100    0.0100    0.0100    0.0100    0.0100    0.0100    0.0100
    0.0100    0.0100    0.0100    0.0100    0.0100    0.0100    0.0100    0.0100
    0.0100    0.0100    0.0100    0.0100    0.0100    0.0100    0.0100    0.0100
    0.0100    0.0100    0.0100    0.0100    0.0100    0.0100    0.0100    0.0100
    0.0100    0.0100    0.0100    0.0100    0.0100    0.0100    0.0100    0.0100
    0.0100    0.0100    0.0100    0.0100    0.0100    0.0100    0.0100    0.0100
   </PP_RAB>
 </PP_MESH>
  <PP_LOCAL type="real"  size=" 832" columns="4">
   -3.1540718340E+01   -3.1592536592E+01   -3.1735005289E+01   -3.1903466945E+01
   -3.2044238636E+01   -3.2129886257E+01   -3.2156227015E+01   -3.2131337836E+01
   -3.2066847385E+01   -3.1973513156E+01   -3.1859739245E+01   -3.1731520738E+01
   -3.1592900721E+01   -3.1446511734E+01   -3.1294039738E+01   -3.1136571003E+01
   -3.0974830777E+01   -3.0809337245E+01   -3.0640494944E+01   -3.0468647648E+01
   -3.0294105604E+01   -3.0117157479E+01   -2.9938073833E+01   -2.9757106321E+01
   -2.9574485071E+01   -2.9390415495E+01   -2.9205075080E+01   -2.9018610302E+01
   -2.8831133643E+01   -2.8642720669E+01   -2.8453407155E+01   -2.8263186439E+01
   -2.8072007241E+01   -2.7879772399E+01   -2.7686339010E+01   -2.7491520540E+01
   -2.7295091384E+01   -2.7096794230E+01   -2.6896350304E+01   -2.6693472262E+01
   -2.6487879089E+01   -2.6279312047E+01   -2.6067550427E+01   -2.5852425753E+01
   -2.5633833170E+01   -2.5411738994E+01   -2.5186183850E+01   -2.4957281275E+01
   -2.4725212196E+01   -2.4490216063E+01   -2.4252579699E+01   -2.4012625003E+01
   -2.3770696594E+01   -2.3527150290E+01   -2.3282343072E+01   -2.3036624917E+01
   -2.2790332613E+01   -2.2543785511E+01   -2.2297282989E+01   -2.2051103348E+01
   -2.1805503816E+01   -2.1560721363E+01   -2.1316974032E+01   -2.1074462576E+01
   -2.0833372195E+01   -2.0593874268E+01   -2.0356127968E+01   -2.0120281705E+01
   -1.9886474383E+01   -1.9654836443E+01   -1.9425490710E+01   -1.9198553047E+01
   -1.8974132842E+01   -1.8752333349E+01   -1.8533251894E+01   -1.8316979978E+01
   -1.8103603295E+01   -1.7893201673E+01   -1.7685848958E+01   -1.7481612860E+01
   -1.7280554756E+01   -1.7082729474E+01   -1.6888185060E+01   -1.6696962521E+01
   -1.6509095577E+01   -1.6324610390E+01   -1.6143525300E+01   -1.5965850554E+01
   -1.5791588039E+01   -1.5620731007E+01   -1.5453263807E+01   -1.5289161604E+01
   -1.5128390111E+01   -1.4970905305E+01   -1.4816653144E+01   -1.4665569281E+01
   -1.4517578781E+01   -1.4372595831E+01   -1.4230523516E+01   -1.4091260233E+01
   -1.3954707153E+01   -1.3820770389E+01   -1.3689360296E+01   -1.3560391437E+01
   -1.3433782424E+01   -1.3309455754E+01   -1.3187337656E+01   -1.3067357942E+01
   -1.2949449866E+01   -1.2833549976E+01   -1.2719597982E+01   -1.2607536620E+01
   -1.2497311529E+01   -1.2388871124E+01   -1.2282166479E+01   -1.2177151215E+01
   -1.2073781388E+01   -1.1972015384E+01   -1.1871813816E+01   -1.1773139426E+01
   -1.1675956987E+01   -1.1580233202E+01   -1.1485936615E+01   -1.1393037509E+01
   -1.1301507808E+01   -1.1211320982E+01   -1.1122451940E+01   -1.1034876932E+01
   -1.0948573433E+01   -1.0863520043E+01   -1.0779696368E+01   -1.0697082908E+01
   -1.0615660944E+01   -1.0535412418E+01   -1.0456319824E+01   -1.0378366090E+01
   -1.0301534474E+01   -1.0225808459E+01   -1.0151171657E+01   -1.0077607720E+01
   -1.0005100261E+01   -9.9336327907E+00   -9.8631886563E+00   -9.7937510033E+00
   -9.7253027454E+00   -9.6578265497E+00   -9.5913048354E+00   -9.5257197867E+00
   -9.4610533768E+00   -9.3972874056E+00   -9.3344035457E+00   -9.2723833988E+00
   -9.2112085583E+00   -9.1508606774E+00   -9.0913215402E+00   -9.0325731359E+00
   -8.9745977264E+00   -8.9173779185E+00   -8.8608967269E+00   -8.8051376449E+00
   -8.7500847589E+00   -8.6957227947E+00   -8.6420371083E+00   -8.5890136878E+00
   -8.5366391264E+00   -8.4849006224E+00   -8.4337859737E+00   -8.3832835442E+00
   -8.3333822822E+00   -8.2840715777E+00   -8.2353410497E+00   -8.1871805348E+00
   -8.1395800730E+00   -8.0925299097E+00   -8.0460205485E+00   -8.0000427315E+00
   -7.9545874016E+00   -7.9096456999E+00   -7.8652089688E+00   -7.8212687454E+00
   -7.7778167544E+00   -7.7348449033E+00   -7.6923452775E+00   -7.6503101354E+00
   -7.6087319037E+00   -7.5676031729E+00   -7.5269166927E+00   -7.4866653682E+00
   -7.4468422552E+00   -7.4074405565E+00   -7.3684536180E+00   -7.3298749252E+00
   -7.2916980989E+00   -7.2539168925E+00   -7.2165251881E+00   -7.1795169931E+00
   -7.1428864374E+00   -7.1066277701E+00   -7.0707353564E+00   -7.0352036748E+00
   -7.0000273143E+00   -6.9652009715E+00   -6.9307194480E+00   -6.8965776479E+00
   -6.8627705752E+00   -6.8292933314E+00   -6.7961411132E+00   -6.7633092099E+00
   -6.7307930016E+00   -6.6985879567E+00   -6.6666896300E+00   -6.6350936606E+00
   -6.6037957698E+00   -6.5727917592E+00   -6.5420775090E+00   -6.5116489760E+00
   -6.4815021919E+00   -6.4516332616E+00   -6.4220383613E+00   -6.3927137371E+00
   -6.3636557036E+00   -6.3348606418E+00   -6.3063249979E+00   -6.2780452821E+00
   -6.2500180668E+00   -6.2222399853E+00   -6.1947077304E+00   -6.1674180534E+00
   -6.1403677623E+00   -6.1135537212E+00   -6.0869728487E+00   -6.0606221166E+00
   -6.0344985488E+00   -6.0085992203E+00   -5.9829212562E+00   -5.9574618308E+00
   -5.9322181661E+00   -5.9071875309E+00   -5.8823672399E+00   -5.8577546528E+00
   -5.8333471732E+00   -5.8091422481E+00   -5.7851373663E+00   -5.7613300582E+00
   -5.7377178947E+00   -5.7142984861E+00   -5.6910694817E+00   -5.6680285691E+00
   -5.6451734729E+00   -5.6225019542E+00   -5.6000118103E+00   -5.5777008731E+00
   -5.5555670094E+00   -5.5336081194E+00   -5.5118221365E+00   -5.4902070265E+00
   -5.4687607869E+00   -5.4474814465E+00   -5.4263670645E+00   -5.4054157304E+00
   -5.3846255626E+00   -5.3639947087E+00   -5.3435213445E+00   -5.3232036736E+00
   -5.3030399266E+00   -5.2830283609E+00   -5.2631672604E+00   -5.2434549342E+00
   -5.2238897171E+00   -5.2044699683E+00   -5.1851940715E+00   -5.1660604343E+00
   -5.1470674876E+00   -5.1282136853E+00   -5.1094975040E+00   -5.0909174422E+00
   -5.0724720204E+00   -5.0541597803E+00   -5.0359792848E+00   -5.0179291173E+00
   -5.0000078812E+00   -4.9822142001E+00   -4.9645467170E+00   -4.9470040941E+00
   -4.9295850125E+00   -4.9122881715E+00   -4.8951122891E+00   -4.8780561008E+00
   -4.8611183597E+00   -4.8442978362E+00   -4.8275933178E+00   -4.8110036085E+00
   -4.7945275288E+00   -4.7781639150E+00   -4.7619116197E+00   -4.7457695107E+00
   -4.7297364713E+00   -4.7138113996E+00   -4.6979932089E+00   -4.6822808266E+00
   -4.6666731946E+00   -4.6511692689E+00   -4.6357680193E+00   -4.6204684292E+00
   -4.6052694953E+00   -4.5901702275E+00   -4.5751696487E+00   -4.5602667944E+00
   -4.5454607128E+00   -4.5307504644E+00   -4.5161351216E+00   -4.5016137690E+00
   -4.4871855028E+00   -4.4728494307E+00   -4.4586046720E+00   -4.4444503569E+00
   -4.4303856267E+00   -4.4164096337E+00   -4.4025215406E+00   -4.3887205209E+00
   -4.3750057581E+00   -4.3613764462E+00   -4.3478317889E+00   -4.3343710000E+00
   -4.3209933029E+00   -4.3076979305E+00   -4.2944841254E+00   -4.2813511390E+00
   -4.2682982323E+00   -4.2553246750E+00   -4.2424297456E+00   -4.2296127317E+00
   -4.2168729290E+00   -4.2042096419E+00   -4.1916221833E+00   -4.1791098740E+00
   -4.1666720429E+00   -4.1543080272E+00   -4.1420171716E+00   -4.1297988286E+00
   -4.1176523585E+00   -4.1055771288E+00   -4.0935725148E+00   -4.0816378986E+00
   -4.0697726700E+00   -4.0579762254E+00   -4.0462479685E+00   -4.0345873097E+00
   -4.0229936664E+00   -4.0114664623E+00   -4.0000051281E+00   -3.9886091008E+00
   -3.9772778236E+00   -3.9660107464E+00   -3.9548073250E+00   -3.9436670216E+00
   -3.9325893041E+00   -3.9215736468E+00   -3.9106195294E+00   -3.8997264378E+00
   -3.8888938633E+00   -3.8781213031E+00   -3.8674082598E+00   -3.8567542415E+00
   -3.8461587617E+00   -3.8356213393E+00   -3.8251414984E+00   -3.8147187683E+00
   -3.8043526835E+00   -3.7940427833E+00   -3.7837886123E+00   -3.7735897197E+00
   -3.7634456598E+00   -3.7533559916E+00   -3.7433202787E+00   -3.7333380896E+00
   -3.7234089971E+00   -3.7135325788E+00   -3.7037084166E+00   -3.6939360968E+00
   -3.6842152101E+00   -3.6745453517E+00   -3.6649261206E+00   -3.6553571204E+00
   -3.6458379587E+00   -3.6363682470E+00   -3.6269476011E+00   -3.6175756406E+00
   -3.6082519890E+00   -3.5989762738E+00   -3.5897481263E+00   -3.5805671815E+00
   -3.5714330780E+00   -3.5623454585E+00   -3.5533039689E+00   -3.5443082588E+00
   -3.5353579815E+00   -3.5264527936E+00   -3.5175923553E+00   -3.5087763301E+00
   -3.5000043849E+00   -3.4912761899E+00   -3.4825914186E+00   -3.4739497479E+00
   -3.4653508575E+00   -3.4567944307E+00   -3.4482801536E+00   -3.4398077156E+00
   -3.4313768090E+00   -3.4229871293E+00   -3.4146383747E+00   -3.4063302465E+00
   -3.3980624489E+00   -3.3898346889E+00   -3.3816466765E+00   -3.3734981242E+00
   -3.3653887476E+00   -3.3573182647E+00   -3.3492863965E+00   -3.3412928664E+00
   -3.3333374007E+00   -3.3254197280E+00   -3.3175395797E+00   -3.3096966897E+00
   -3.3018907944E+00   -3.2941216325E+00   -3.2863889455E+00   -3.2786924771E+00
   -3.2710319734E+00   -3.2634071829E+00   -3.2558178564E+00   -3.2482637471E+00
   -3.2407446105E+00   -3.2332602042E+00   -3.2258102881E+00   -3.2183946244E+00
   -3.2110129775E+00   -3.2036651137E+00   -3.1963508018E+00   -3.1890698124E+00
   -3.1818219182E+00   -3.1746068943E+00   -3.1674245175E+00   -3.1602745666E+00
   -3.1531568227E+00   -3.1460710685E+00   -3.1390170890E+00   -3.1319946708E+00
   -3.1250036026E+00   -3.1180436750E+00   -3.1111146803E+00   -3.1042164128E+00
   -3.0973486685E+00   -3.0905112454E+00   -3.0837039429E+00   -3.0769265627E+00
   -3.0701789077E+00   -3.0634607828E+00   -3.0567719948E+00   -3.0501123517E+00
   -3.0434816635E+00   -3.0368797418E+00   -3.0303063998E+00   -3.0237614523E+00
   -3.0172447157E+00   -3.0107560081E+00   -3.0042951490E+00   -2.9978619594E+00
   -2.9914562621E+00   -2.9850778811E+00   -2.9787266421E+00   -2.9724023723E+00
   -2.9661049002E+00   -2.9598340558E+00   -2.9535896706E+00   -2.9473715776E+00
   -2.9411796110E+00   -2.9350136064E+00   -2.9288734011E+00   -2.9227588332E+00
   -2.9166697428E+00   -2.9106059707E+00   -2.9045673595E+00   -2.8985537529E+00
   -2.8925649959E+00   -2.8866009347E+00   -2.8806614170E+00   -2.8747462916E+00
   -2.8688554084E+00   -2.8629886188E+00   -2.8571457753E+00   -2.8513267315E+00
   -2.8455313424E+00   -2.8397594639E+00   -2.8340109534E+00   -2.8282856691E+00
   -2.8225834707E+00   -2.8169042187E+00   -2.8112477750E+00   -2.8056140024E+00
   -2.8000027648E+00   -2.7944139274E+00   -2.7888473562E+00   -2.7833029186E+00
   -2.7777804826E+00   -2.7722799177E+00   -2.7668010942E+00   -2.7613438833E+00
   -2.7559081576E+00   -2.7504937903E+00   -2.7451006558E+00   -2.7397286294E+00
   -2.7343775876E+00   -2.7290474075E+00   -2.7237379674E+00   -2.7184491464E+00
   -2.7131808248E+00   -2.7079328836E+00   -2.7027052047E+00   -2.6974976709E+00
   -2.6923101662E+00   -2.6871425751E+00   -2.6819947832E+00   -2.6768666769E+00
   -2.6717581436E+00   -2.6666690714E+00   -2.6615993492E+00   -2.6565488670E+00