<UPF version="2.0.1">
  <PP_INFO>

 This pseudopotential file has been produced using the code
 ONCVPSP  (Optimized Norm-Conservinng Vanderbilt PSeudopotential)
 fully-relativistic version 3.3.0 08/16/2017 by D. R. Hamann
 The code is available through a link at URL www.mat-simresearch.com.
 Documentation with the package provides a full discription of the
 input data below.


 While it is not required under the terms of the GNU GPL, it is
 suggested that you cite D. R. Hamann, Phys. Rev. B 88, 085117 (2013)
 in any publication using these pseudopotentials.

    <PP_INPUTFILE>
# ATOM AND REFERENCE CONFIGURATION
# atsym  z   nc   nv     iexc    psfile
  He  2.00    0    1       4      upf
#
#   n    l    f        energy (Ha)
    1    0    2.00
#
# PSEUDOPOTENTIAL AND OPTIMIZATION
# lmax
    0
#
#   l,   rc,     ep,   ncon, nbas, qcut
    0   1.98530  -0.57931    5    8   7.17231
#
# LOCAL POTENTIAL
# lloc, lpopt,  rc(5),   dvloc0
    4    5   0.89431      0.00000
#
# VANDERBILT-KLEINMAN-BYLANDER PROJECTORs
# l, nproj, debl
    0    2   1.34022
#
# MODEL CORE CHARGE
# icmod, fcfact, rcfact
    0   0.00000   0.00000
#
# LOG DERIVATIVE ANALYSIS
# epsh1, epsh2, depsh
   -5.00    3.00    0.02
#
# OUTPUT GRID
# rlmax, drl
    6.00    0.01
#
# TEST CONFIGURATIONS
# ncnf
    0
# nvcnf
#   n    l    f
    </PP_INPUTFILE>
  </PP_INFO>
  <!--                               -->
  <!-- END OF HUMAN READABLE SECTION -->
  <!--                               -->
    <PP_HEADER
       generated="Generated using ONCVPSP code by D. R. Hamann"
       author="anonymous"
       date="170818"
       comment=""
       element="He"
       pseudo_type="NC"
       relativistic="full"
       is_ultrasoft="F"
       is_paw="F"
       is_coulomb="F"
       has_so="T"
       has_wfc="F"
       has_gipaw="F"
       core_correction="F"
       functional="PBE"
       z_valence="    2.00"
       total_psenergy="  -5.58096681626E+00"
       rho_cutoff="   7.21000000000E+00"
       l_max="0"
       l_local="-1"
       mesh_size="   722"
       number_of_wfc="1"
       number_of_proj="2"/>
 <PP_MESH>
   <PP_R type="real"  size=" 722" columns="8">
    0.0000    0.0100    0.0200    0.0300    0.0400    0.0500    0.0600    0.0700
    0.0800    0.0900    0.1000    0.1100    0.1200    0.1300    0.1400    0.1500
    0.1600    0.1700    0.1800    0.1900    0.2000    0.2100    0.2200    0.2300
    0.2400    0.2500    0.2600    0.2700    0.2800    0.2900    0.3000    0.3100
    0.3200    0.3300    0.3400    0.3500    0.3600    0.3700    0.3800    0.3900
    0.4000    0.4100    0.4200    0.4300    0.4400    0.4500    0.4600    0.4700
    0.4800    0.4900    0.5000    0.5100    0.5200    0.5300    0.5400    0.5500
    0.5600    0.5700    0.5800    0.5900    0.6000    0.6100    0.6200    0.6300
    0.6400    0.6500    0.6600    0.6700    0.6800    0.6900    0.7000    0.7100
    0.7200    0.7300    0.7400    0.7500    0.7600    0.7700    0.7800    0.7900
    0.8000    0.8100    0.8200    0.8300    0.8400    0.8500    0.8600    0.8700
    0.8800    0.8900    0.9000    0.9100    0.9200    0.9300    0.9400    0.9500
    0.9600    0.9700    0.9800    0.9900    1.0000    1.0100    1.0200    1.0300
    1.0400    1.0500    1.0600    1.0700    1.0800    1.0900    1.1000    1.1100
    1.1200    1.1300    1.1400    1.1500    1.1600    1.1700    1.1800    1.1900
    1.2000    1.2100    1.2200    1.2300    1.2400    1.2500    1.2600    1.2700
    1.2800    1.2900    1.3000    1.3100    1.3200    1.3300    1.3400    1.3500
    1.3600    1.3700    1.3800    1.3900    1.4000    1.4100    1.4200    1.4300
    1.4400    1.4500    1.4600    1.4700    1.4800    1.4900    1.5000    1.5100
    1.5200    1.5300    1.5400    1.5500    1.5600    1.5700    1.5800    1.5900
    1.6000    1.6100    1.6200    1.6300    1.6400    1.6500    1.6600    1.6700
    1.6800    1.6900    1.7000    1.7100    1.7200    1.7300    1.7400    1.7500
    1.7600    1.7700    1.7800    1.7900    1.8000    1.8100    1.8200    1.8300
    1.8400    1.8500    1.8600    1.8700    1.8800    1.8900    1.9000    1.9100
    1.9200    1.9300    1.9400    1.9500    1.9600    1.9700    1.9800    1.9900
    2.0000    2.0100    2.0200    2.0300    2.0400    2.0500    2.0600    2.0700
    2.0800    2.0900    2.1000    2.1100    2.1200    2.1300    2.1400    2.1500
    2.1600    2.1700    2.1800    2.1900    2.2000    2.2100    2.2200    2.2300
    2.2400    2.2500    2.2600    2.2700    2.2800    2.2900    2.3000    2.3100
    2.3200    2.3300    2.3400    2.3500    2.3600    2.3700    2.3800    2.3900
    2.4000    2.4100    2.4200    2.4300    2.4400    2.4500    2.4600    2.4700
    2.4800    2.4900    2.5000    2.5100    2.5200    2.5300    2.5400    2.5500
    2.5600    2.5700    2.5800    2.5900    2.6000    2.6100    2.6200    2.6300
    2.6400    2.6500    2.6600    2.6700    2.6800    2.6900    2.7000    2.7100
    2.7200    2.7300    2.7400    2.7500    2.7600    2.7700    2.7800    2.7900
    2.8000    2.8100    2.8200    2.8300    2.8400    2.8500    2.8600    2.8700
    2.8800    2.8900    2.9000    2.9100    2.9200    2.9300    2.9400    2.9500
    2.9600    2.9700    2.9800    2.9900    3.0000    3.0100    3.0200    3.0300
    3.0400    3.0500    3.0600    3.0700    3.0800    3.0900    3.1000    3.1100
    3.1200    3.1300    3.1400    3.1500    3.1600    3.1700    3.1800    3.1900
    3.2000    3.2100    3.2200    3.2300    3.2400    3.2500    3.2600    3.2700
    3.2800    3.2900    3.3000    3.3100    3.3200    3.3300    3.3400    3.3500
    3.3600    3.3700    3.3800    3.3900    3.4000    3.4100    3.4200    3.4300
    3.4400    3.4500    3.4600    3.4700    3.4800    3.4900    3.5000    3.5100
    3.5200    3.5300    3.5400    3.5500    3.5600    3.5700    3.5800    3.5900
    3.6000    3.6100    3.6200    3.6300    3.6400    3.6500    3.6600    3.6700
    3.6800    3.6900    3.7000    3.7100    3.7200    3.7300    3.7400    3.7500
    3.7600    3.7700    3.7800    3.7900    3.8000    3.8100    3.8200    3.8300
    3.8400    3.8500    3.8600    3.8700    3.8800    3.8900    3.9000    3.9100
    3.9200    3.9300    3.9400    3.9500    3.9600    3.9700    3.9800    3.9900
    4.0000    4.0100    4.0200    4.0300    4.0400    4.0500    4.0600    4.0700
    4.0800    4.0900    4.1000    4.1100    4.1200    4.1300    4.1400    4.1500
    4.1600    4.1700    4.1800    4.1900    4.2000    4.2100    4.2200    4.2300
    4.2400    4.2500    4.2600    4.2700    4.2800    4.2900    4.3000    4.3100
    4.3200    4.3300    4.3400    4.3500    4.3600    4.3700    4.3800    4.3900
    4.4000    4.4100    4.4200    4.4300    4.4400    4.4500    4.4600    4.4700
    4.4800    4.4900    4.5000    4.5100    4.5200    4.5300    4.5400    4.5500
    4.5600    4.5700    4.5800    4.5900    4.6000    4.6100    4.6200    4.6300
    4.6400    4.6500    4.6600    4.6700    4.6800    4.6900    4.7000    4.7100
    4.7200    4.7300    4.7400    4.7500    4.7600    4.7700    4.7800    4.7900
    4.8000    4.8100    4.8200    4.8300    4.8400    4.8500    4.8600    4.8700
    4.8800    4.8900    4.9000    4.9100    4.9200    4.9300    4.9400    4.9500
    4.9600    4.9700    4.9800    4.9900    5.0000    5.0100    5.0200    5.0300
    5.0400    5.0500    5.0600    5.0700    5.0800    5.0900    5.1000    5.1100
    5.1200    5.1300    5.1400    5.1500    5.1600    5.1700    5.1800    5.1900
    5.2000    5.2100    5.2200    5.2300    5.2400    5.2500    5.2600    5.2700
    5.2800    5.2900    5.3000    5.3100    5.3200    5.3300    5.3400    5.3500
    5.3600    5.3700    5.3800    5.3900    5.4000    5.4100    5.4200    5.4300
    5.4400    5.4500    5.4600    5.4700    5.4800    5.4900    5.5000    5.5100
    5.5200    5.5300    5.5400    5.5500    5.5600    5.5700    5.5800    5.5900
    5.6000    5.6100    5.6200    5.6300    5.6400    5.6500    5.6600    5.6700
    5.6800    5.6900    5.7000    5.7100    5.7200    5.7300    5.7400    5.7500
    5.7600    5.7700    5.7800    5.7900    5.8000    5.8100    5.8200    5.8300
    5.8400    5.8500    5.8600    5.8700    5.8800    5.8900    5.9000    5.9100
    5.9200    5.9300    5.9400    5.9500    5.9600    5.9700    5.9800    5.9900
    6.0000    6.0100    6.0200    6.0300    6.0400    6.0500    6.0600    6.0700
    6.0800    6.0900    6.1000    6.1100    6.1200    6.1300    6.1400    6.1500
    6.1600    6.1700    6.1800    6.1900    6.2000    6.2100    6.2200    6.2300
    6.2400    6.2500    6.2600    6.2700    6.2800    6.2900    6.3000    6.3100
    6.3200    6.3300    6.3400    6.3500    6.3600    6.3700    6.3800    6.3900
    6.4000    6.4100    6.4200    6.4300    6.4400    6.4500    6.4600    6.4700
    6.4800    6.4900    6.5000    6.5100    6.5200    6.5300    6.5400    6.5500
    6.5600    6.5700    6.5800    6.5900    6.6000    6.6100    6.6200    6.6300
    6.6400    6.6500    6.6600    6.6700    6.6800    6.6900    6.7000    6.7100
    6.7200    6.7300    6.7400    6.7500    6.7600    6.7700    6.7800    6.7900
    6.8000    6.8100    6.8200    6.8300    6.8400    6.8500    6.8600    6.8700
    6.8800    6.8900    6.9000    6.9100    6.9200    6.9300    6.9400    6.9500
    6.9600    6.9700    6.9800    6.9900    7.0000    7.0100    7.0200    7.0300
    7.0400    7.0500    7.0600    7.0700    7.0800    7.0900    7.1000    7.1100
    7.1200    7.1300    7.1400    7.1500    7.1600    7.1700    7.1800    7.1900
    7.2000    7.2100
   </PP_R>
   <PP_RAB type="real"  size=" 722" columns="8">
    0.0100    0.0100    0.0100    0.0100    0.0100    0.0100    0.0100    0.0100
    0.0100    0.0100    0.0100    0.0100    0.0100    0.0100    0.0100    0.0100
    0.0100    0.0100    0.0100    0.0100    0.0100    0.0100    0.0100    0.0100
    0.0100    0.0100    0.0100    0.0100    0.0100    0.0100    0.0100    0.0100
    0.0100    0.0100    0.0100    0.0100    0.0100    0.0100    0.0100    0.0100
    0.0100    0.0100    0.0100    0.0100    0.0100    0.0100    0.0100    0.0100
    0.0100    0.0100    0.0100    0.0100    0.0100    0.0100    0.0100    0.0100
    0.0100    0.0100    0.0100    0.0100    0.0100    0.0100    0.0100    0.0100
    0.0100    0.0100    0.0100    0.0100    0.0100    0.0100    0.0100    0.0100
    0.0100    0.0100    0.0100    0.0100    0.0100    0.0100    0.0100    0.0100
    0.0100    0.0100    0.0100    0.0100    0.0100    0.0100    0.0100    0.0100
    0.0100    0.0100    0.0100    0.0100    0.0100    0.0100    0.0100    0.0100
    0.0100    0.0100    0.0100    0.0100    0.0100    0.0100    0.0100    0.0100
    0.0100    0.0100    0.0100    0.0100    0.0100    0.0100    0.0100    0.0100
    0.0100    0.0100    0.0100    0.0100    0.0100    0.0100    0.0100    0.0100
    0.0100    0.0100    0.0100    0.0100    0.0100    0.0100    0.0100    0.0100
    0.0100    0.0100    0.0100    0.0100    0.0100    0.0100    0.0100    0.0100
    0.0100    0.0100    0.0100    0.0100    0.0100    0.0100    0.0100    0.0100
    0.0100    0.0100    0.0100    0.0100    0.0100    0.0100    0.0100    0.0100
    0.0100    0.0100    0.0100    0.0100    0.0100    0.0100    0.0100    0.0100
    0.0100    0.0100    0.0100    0.0100    0.0100    0.0100    0.0100    0.0100
    0.0100    0.0100    0.0100    0.0100    0.0100    0.0100    0.0100    0.0100
    0.0100    0.0100    0.0100    0.0100    0.0100    0.0100    0.0100    0.0100
    0.0100    0.0100    0.0100    0.0100    0.0100    0.0100    0.0100    0.0100
    0.0100    0.0100    0.0100    0.0100    0.0100    0.0100    0.0100    0.0100
    0.0100    0.0100    0.0100    0.0100    0.0100    0.0100    0.0100    0.0100
    0.0100    0.0100    0.0100    0.0100    0.0100    0.0100    0.0100    0.0100
    0.0100    0.0100    0.0100    0.0100    0.0100    0.0100    0.0100    0.0100
    0.0100    0.0100    0.0100    0.0100    0.0100    0.0100    0.0100    0.0100
    0.0100    0.0100    0.0100    0.0100    0.0100    0.0100    0.0100    0.0100
    0.0100    0.0100    0.0100    0.0100    0.0100    0.0100    0.0100    0.0100
    0.0100    0.0100    0.0100    0.0100    0.0100    0.0100    0.0100    0.0100
    0.0100    0.0100    0.0100    0.0100    0.0100    0.0100    0.0100    0.0100
    0.0100    0.0100    0.0100    0.0100    0.0100    0.0100    0.0100    0.0100
    0.0100    0.0100    0.0100    0.0100    0.0100    0.0100    0.0100    0.0100
    0.0100    0.0100    0.0100    0.0100    0.0100    0.0100    0.0100    0.0100
    0.0100    0.0100    0.0100    0.0100    0.0100    0.0100    0.0100    0.0100
    0.0100    0.0100    0.0100    0.0100    0.0100    0.0100    0.0100    0.0100
    0.0100    0.0100    0.0100    0.0100    0.0100    0.0100    0.0100    0.0100
    0.0100    0.0100    0.0100    0.0100    0.0100    0.0100    0.0100    0.0100
    0.0100    0.0100    0.0100    0.0100    0.0100    0.0100    0.0100    0.0100
    0.0100    0.0100    0.0100    0.0100    0.0100    0.0100    0.0100    0.0100
    0.0100    0.0100    0.0100    0.0100    0.0100    0.0100    0.0100    0.0100
    0.0100    0.0100    0.0100    0.0100    0.0100    0.0100    0.0100    0.0100
    0.0100    0.0100    0.0100    0.0100    0.0100    0.0100    0.0100    0.0100
    0.0100    0.0100    0.0100    0.0100    0.0100    0.0100    0.0100    0.0100
    0.0100    0.0100    0.0100    0.0100    0.0100    0.0100    0.0100    0.0100
    0.0100    0.0100    0.0100    0.0100    0.0100    0.0100    0.0100    0.0100
    0.0100    0.0100    0.0100    0.0100    0.0100    0.0100    0.0100    0.0100
    0.0100    0.0100    0.0100    0.0100    0.0100    0.0100    0.0100    0.0100
    0.0100    0.0100    0.0100    0.0100    0.0100    0.0100    0.0100    0.0100
    0.0100    0.0100    0.0100    0.0100    0.0100    0.0100    0.0100    0.0100
    0.0100    0.0100    0.0100    0.0100    0.0100    0.0100    0.0100    0.0100
    0.0100    0.0100    0.0100    0.0100    0.0100    0.0100    0.0100    0.0100
    0.0100    0.0100    0.0100    0.0100    0.0100    0.0100    0.0100    0.0100
    0.0100    0.0100    0.0100    0.0100    0.0100    0.0100    0.0100    0.0100
    0.0100    0.0100    0.0100    0.0100    0.0100    0.0100    0.0100    0.0100
    0.0100    0.0100    0.0100    0.0100    0.0100    0.0100    0.0100    0.0100
    0.0100    0.0100    0.0100    0.0100    0.0100    0.0100    0.0100    0.0100
    0.0100    0.0100    0.0100    0.0100    0.0100    0.0100    0.0100    0.0100
    0.0100    0.0100    0.0100    0.0100    0.0100    0.0100    0.0100    0.0100
    0.0100    0.0100    0.0100    0.0100    0.0100    0.0100    0.0100    0.0100
    0.0100    0.0100    0.0100    0.0100    0.0100    0.0100    0.0100    0.0100
    0.0100    0.0100    0.0100    0.0100    0.0100    0.0100    0.0100    0.0100
    0.0100    0.0100    0.0100    0.0100    0.0100    0.0100    0.0100    0.0100
    0.0100    0.0100    0.0100    0.0100    0.0100    0.0100    0.0100    0.0100
    0.0100    0.0100    0.0100    0.0100    0.0100    0.0100    0.0100    0.0100
    0.0100    0.0100    0.0100    0.0100    0.0100    0.0100    0.0100    0.0100
    0.0100    0.0100    0.0100    0.0100    0.0100    0.0100    0.0100    0.0100
    0.0100    0.0100    0.0100    0.0100    0.0100    0.0100    0.0100    0.0100
    0.0100    0.0100    0.0100    0.0100    0.0100    0.0100    0.0100    0.0100
    0.0100    0.0100    0.0100    0.0100    0.0100    0.0100    0.0100    0.0100
    0.0100    0.0100    0.0100    0.0100    0.0100    0.0100    0.0100    0.0100
    0.0100    0.0100    0.0100    0.0100    0.0100    0.0100    0.0100    0.0100
    0.0100    0.0100    0.0100    0.0100    0.0100    0.0100    0.0100    0.0100
    0.0100    0.0100    0.0100    0.0100    0.0100    0.0100    0.0100    0.0100
    0.0100    0.0100    0.0100    0.0100    0.0100    0.0100    0.0100    0.0100
    0.0100    0.0100    0.0100    0.0100    0.0100    0.0100    0.0100    0.0100
    0.0100    0.0100    0.0100    0.0100    0.0100    0.0100    0.0100    0.0100
    0.0100    0.0100    0.0100    0.0100    0.0100    0.0100    0.0100    0.0100
    0.0100    0.0100    0.0100    0.0100    0.0100    0.0100    0.0100    0.0100
    0.0100    0.0100    0.0100    0.0100    0.0100    0.0100    0.0100    0.0100
    0.0100    0.0100    0.0100    0.0100    0.0100    0.0100    0.0100    0.0100
    0.0100    0.0100    0.0100    0.0100    0.0100    0.0100    0.0100    0.0100
    0.0100    0.0100    0.0100    0.0100    0.0100    0.0100    0.0100    0.0100
    0.0100    0.0100    0.0100    0.0100    0.0100    0.0100    0.0100    0.0100
    0.0100    0.0100    0.0100    0.0100    0.0100    0.0100    0.0100    0.0100
    0.0100    0.0100    0.0100    0.0100    0.0100    0.0100    0.0100    0.0100
    0.0100    0.0100    0.0100    0.0100    0.0100    0.0100    0.0100    0.0100
    0.0100    0.0100    0.0100    0.0100    0.0100    0.0100    0.0100    0.0100
    0.0100    0.0100
   </PP_RAB>
 </PP_MESH>
  <PP_LOCAL type="real"  size=" 722" columns="4">
   -9.7047743138E+00   -9.7033820992E+00   -9.6992075142E+00   -9.6922566944E+00
   -9.6825398336E+00   -9.6700711331E+00   -9.6548687310E+00   -9.6369546152E+00
   -9.6163545193E+00   -9.5930978037E+00   -9.5672173239E+00   -9.5387492877E+00
   -9.5077331036E+00   -9.4742112217E+00   -9.4382289707E+00   -9.3998343908E+00
   -9.3590780665E+00   -9.3160129600E+00   -9.2706942457E+00   -9.2231791500E+00
   -9.1735267944E+00   -9.1217980448E+00   -9.0680553673E+00   -9.0123626901E+00
   -8.9547852738E+00   -8.8953895878E+00   -8.8342431946E+00   -8.7714146410E+00
   -8.7069733559E+00   -8.6409895550E+00   -8.5735341506E+00   -8.5046786671E+00
   -8.4344951614E+00   -8.3630561466E+00   -8.2904345202E+00   -8.2167034938E+00
   -8.1419365264E+00   -8.0662072581E+00   -7.9895894453E+00   -7.9121568966E+00
   -7.8339834082E+00   -7.7551426991E+00   -7.6757083460E+00   -7.5957537161E+00
   -7.5153518988E+00   -7.4345756364E+00   -7.3534972518E+00   -7.2721885745E+00
   -7.1907208646E+00   -7.1091647344E+00   -7.0275900672E+00   -6.9460659341E+00
   -6.8646605081E+00   -6.7834409757E+00   -6.7024734469E+00   -6.6218228610E+00
   -6.5415528927E+00   -6.4617258537E+00   -6.3824025937E+00   -6.3036423990E+00
   -6.2255028896E+00   -6.1480399143E+00   -6.0713074451E+00   -5.9953574698E+00
   -5.9202398842E+00   -5.8460023829E+00   -5.7726903507E+00   -5.7003467527E+00
   -5.6290120252E+00   -5.5587239665E+00   -5.4895176283E+00   -5.4214252081E+00
   -5.3544759423E+00   -5.2886960011E+00   -5.2241083838E+00   -5.1607328168E+00
   -5.0985856521E+00   -5.0376797686E+00   -4.9780244738E+00   -4.9196254083E+00
   -4.8624844508E+00   -4.8065996249E+00   -4.7519650065E+00   -4.6985706317E+00
   -4.6464024055E+00   -4.5954420093E+00   -4.5456668084E+00   -4.4970497566E+00
   -4.4495592990E+00   -4.4031593137E+00   -4.3578088426E+00   -4.3134638253E+00
   -4.2700806546E+00   -4.2276179119E+00   -4.1860361309E+00   -4.1452977992E+00
   -4.1053673104E+00   -4.0662109169E+00   -4.0277966828E+00   -3.9900944352E+00
   -3.9530757136E+00   -3.9167137177E+00   -3.8809832533E+00   -3.8458606751E+00
   -3.8113238285E+00   -3.7773519889E+00   -3.7439257994E+00   -3.7110272071E+00
   -3.6786393981E+00   -3.6467467319E+00   -3.6153346749E+00   -3.5843897350E+00
   -3.5538993950E+00   -3.5238520476E+00   -3.4942369319E+00   -3.4650440699E+00
   -3.4362642057E+00   -3.4078887477E+00   -3.3799097105E+00   -3.3523196612E+00
   -3.3251116677E+00   -3.2982792499E+00   -3.2718163334E+00   -3.2457172063E+00
   -3.2199764788E+00   -3.1945890458E+00   -3.1695500518E+00   -3.1448548593E+00
   -3.1204990189E+00   -3.0964782427E+00   -3.0727883793E+00   -3.0494253918E+00
   -3.0263853372E+00   -3.0036643478E+00   -2.9812586144E+00   -2.9591643712E+00
   -2.9373778819E+00   -2.9158954268E+00   -2.8947132917E+00   -2.8738277573E+00
   -2.8532350894E+00   -2.8329315306E+00   -2.8129132922E+00   -2.7931765470E+00
   -2.7737174231E+00   -2.7545319978E+00   -2.7356162933E+00   -2.7169662722E+00
   -2.6985778342E+00   -2.6804468143E+00   -2.6625689811E+00   -2.6449400365E+00
   -2.6275556172E+00   -2.6104112961E+00   -2.5935025861E+00   -2.5768249449E+00
   -2.5603737806E+00   -2.5441444592E+00   -2.5281323131E+00   -2.5123326512E+00
   -2.4967407696E+00   -2.4813519635E+00   -2.4661615404E+00   -2.4511648336E+00
   -2.4363572160E+00   -2.4217341155E+00   -2.4072910287E+00   -2.3930235358E+00
   -2.3789273151E+00   -2.3649981560E+00   -2.3512319721E+00   -2.3376248130E+00
   -2.3241728746E+00   -2.3108725083E+00   -2.2977202285E+00   -2.2847127185E+00
   -2.2718468344E+00   -2.2591196075E+00   -2.2465282441E+00   -2.2340701245E+00
   -2.2217427992E+00   -2.2095439837E+00   -2.1974715517E+00   -2.1855235266E+00
   -2.1736980717E+00   -2.1619934789E+00   -2.1504081566E+00   -2.1389406168E+00
   -2.1275894608E+00   -2.1163533656E+00   -2.1052310691E+00   -2.0942213553E+00
   -2.0833230399E+00   -2.0725349564E+00   -2.0618559427E+00   -2.0512848266E+00
   -2.0408204162E+00   -2.0304614850E+00   -2.0202067592E+00   -2.0100549100E+00
   -2.0000045579E+00   -1.9900542421E+00   -1.9802024763E+00   -1.9704477837E+00
   -1.9607887132E+00   -1.9512238475E+00   -1.9417518286E+00   -1.9323713331E+00
   -1.9230810433E+00   -1.9138796589E+00   -1.9047659055E+00   -1.8957385387E+00
   -1.8867963370E+00   -1.8779381009E+00   -1.8691626530E+00   -1.8604688382E+00
   -1.8518555226E+00   -1.8433215935E+00   -1.8348659583E+00   -1.8264875445E+00
   -1.8181852990E+00   -1.8099581880E+00   -1.8018051960E+00   -1.7937253259E+00
   -1.7857175984E+00   -1.7777810517E+00   -1.7699147407E+00   -1.7621177374E+00
   -1.7543891297E+00   -1.7467280216E+00   -1.7391335326E+00   -1.7316047977E+00
   -1.7241409664E+00   -1.7167412031E+00   -1.7094046865E+00   -1.7021306090E+00
   -1.6949181771E+00   -1.6877666102E+00   -1.6806751413E+00   -1.6736430159E+00
   -1.6666694922E+00   -1.6597538407E+00   -1.6528953441E+00   -1.6460932966E+00
   -1.6393470042E+00   -1.6326557841E+00   -1.6260189648E+00   -1.6194358855E+00
   -1.6129058961E+00   -1.6064283570E+00   -1.6000026386E+00   -1.5936281217E+00
   -1.5873041967E+00   -1.5810302637E+00   -1.5748057321E+00   -1.5686300208E+00
   -1.5625025577E+00   -1.5564227796E+00   -1.5503901318E+00   -1.5444040686E+00
   -1.5384640524E+00   -1.5325695539E+00   -1.5267200520E+00   -1.5209150332E+00
   -1.5151539921E+00   -1.5094364309E+00   -1.5037618591E+00   -1.4981297937E+00
   -1.4925397589E+00   -1.4869912860E+00   -1.4814839131E+00   -1.4760171851E+00
   -1.4705906540E+00   -1.4652038778E+00   -1.4598564213E+00   -1.4545478555E+00
   -1.4492777578E+00   -1.4440457114E+00   -1.4388513058E+00   -1.4336941362E+00
   -1.4285738037E+00   -1.4234899149E+00   -1.4184420821E+00   -1.4134299231E+00
   -1.4084530611E+00   -1.4035111245E+00   -1.3986037470E+00   -1.3937305672E+00
   -1.3888912290E+00   -1.3840853811E+00   -1.3793126770E+00   -1.3745727749E+00
   -1.3698653380E+00   -1.3651900338E+00   -1.3605465343E+00   -1.3559345162E+00
   -1.3513536603E+00   -1.3468036520E+00   -1.3422841806E+00   -1.3377949397E+00
   -1.3333356271E+00   -1.3289059444E+00   -1.3245055973E+00   -1.3201342954E+00
   -1.3157917520E+00   -1.3114776842E+00   -1.3071918129E+00   -1.3029338625E+00
   -1.2987035610E+00   -1.2945006401E+00   -1.2903248348E+00   -1.2861758834E+00
   -1.2820535278E+00   -1.2779575130E+00   -1.2738875874E+00   -1.2698435025E+00
   -1.2658250130E+00   -1.2618318767E+00   -1.2578638543E+00   -1.2539207098E+00
   -1.2500022098E+00   -1.2461081240E+00   -1.2422382250E+00   -1.2383922882E+00
   -1.2345700915E+00   -1.2307714160E+00   -1.2269960452E+00   -1.2232437652E+00
   -1.2195143649E+00   -1.2158076356E+00   -1.2121233712E+00   -1.2084613681E+00
   -1.2048214252E+00   -1.2012033438E+00   -1.1976069273E+00   -1.1940319819E+00
   -1.1904783159E+00   -1.1869457397E+00   -1.1834340663E+00   -1.1799431106E+00
   -1.1764726899E+00   -1.1730226234E+00   -1.1695927327E+00   -1.1661828412E+00
   -1.1627927745E+00   -1.1594223604E+00   -1.1560714283E+00   -1.1527398098E+00
   -1.1494273385E+00   -1.1461338497E+00   -1.1428591808E+00   -1.1396031708E+00
   -1.1363656609E+00   -1.1331464936E+00   -1.1299455137E+00   -1.1267625674E+00
   -1.1235975027E+00   -1.1204501693E+00   -1.1173204188E+00   -1.1142081041E+00
   -1.1111130799E+00   -1.1080352026E+00   -1.1049743301E+00   -1.1019303219E+00
   -1.0989030388E+00   -1.0958923435E+00   -1.0928981001E+00   -1.0899201740E+00
   -1.0869584321E+00   -1.0840127431E+00   -1.0810829765E+00   -1.0781690038E+00
   -1.0752706976E+00   -1.0723879318E+00   -1.0695205818E+00   -1.0666685242E+00
   -1.0638316371E+00   -1.0610097998E+00   -1.0582028927E+00   -1.0554107978E+00
   -1.0526333980E+00   -1.0498705777E+00   -1.0471222223E+00   -1.0443882187E+00
   -1.0416684545E+00   -1.0389628190E+00   -1.0362712022E+00   -1.0335934956E+00
   -1.0309295915E+00   -1.0282793836E+00   -1.0256427663E+00   -1.0230196356E+00
   -1.0204098882E+00   -1.0178134218E+00   -1.0152301355E+00   -1.0126599290E+00
   -1.0101027033E+00   -1.0075583604E+00   -1.0050268030E+00   -1.0025079351E+00
   -1.0000016615E+00   -9.9750788800E-01   -9.9502652128E-01   -9.9255746900E-01
   -9.9010063971E-01   -9.8765594288E-01   -9.8522328885E-01   -9.8280258887E-01
   -9.8039375502E-01   -9.7799670029E-01   -9.7561133847E-01   -9.7323758423E-01
   -9.7087535303E-01   -9.6852456118E-01   -9.6618512578E-01   -9.6385696475E-01
   -9.6153999677E-01   -9.5923414132E-01   -9.5693931865E-01   -9.5465544976E-01
   -9.5238245642E-01   -9.5012026112E-01   -9.4786878710E-01   -9.4562795833E-01
   -9.4339769948E-01   -9.4117793595E-01   -9.3896859383E-01   -9.3676959990E-01
   -9.3458088162E-01   -9.3240236713E-01   -9.3023398526E-01   -9.2807566546E-01
   -9.2592733788E-01   -9.2378893326E-01   -9.2166038304E-01   -9.1954161923E-01
   -9.1743257452E-01   -9.1533318217E-01   -9.1324337607E-01   -9.1116309072E-01
   -9.0909226120E-01   -9.0703082319E-01   -9.0497871294E-01   -9.0293586728E-01
   -9.0090222363E-01   -8.9887771994E-01   -8.9686229473E-01   -8.9485588707E-01
   -8.9285843659E-01   -8.9086988343E-01   -8.8889016827E-01   -8.8691923234E-01
   -8.8495701735E-01   -8.8300346556E-01   -8.8105851972E-01   -8.7912212309E-01
   -8.7719421942E-01   -8.7527475296E-01   -8.7336366845E-01   -8.7146091110E-01
   -8.6956642660E-01   -8.6768016113E-01   -8.6580206130E-01   -8.6393207422E-01
   -8.6207014742E-01   -8.6021622891E-01   -8.5837026713E-01   -8.5653221097E-01
   -8.5470200975E-01   -8.5287961322E-01   -8.5106497157E-01   -8.4925803541E-01
   -8.4745875576E-01   -8.4566708406E-01   -8.4388297215E-01   -8.4210637230E-01
   -8.4033723715E-01   -8.3857551977E-01   -8.3682117359E-01   -8.3507415244E-01
   -8.3333441056E-01   -8.3160190253E-01   -8.2987658334E-01   -8.2815840832E-01
   -8.2644733321E-01   -8.2474331408E-01   -8.2304630738E-01   -8.2135626992E-01
   -8.1967315884E-01   -8.1799693165E-01   -8.1632754621E-01   -8.1466496072E-01
   -8.1300913371E-01   -8.1136002406E-01   -8.0971759096E-01   -8.0808179397E-01
   -8.0645259294E-01   -8.0482994806E-01   -8.0321381983E-01   -8.0160416907E-01
   -8.0000095693E-01   -7.9840414483E-01   -7.9681369455E-01   -7.9522956813E-01
   -7.9365172793E-01   -7.9208013661E-01   -7.9051475713E-01   -7.8895555271E-01
   -7.8740248691E-01   -7.8585552353E-01   -7.8431462668E-01   -7.8277976075E-01
   -7.8125089040E-01   -7.7972798056E-01   -7.7821099645E-01   -7.7669990355E-01
   -7.7519466760E-01   -7.7369525463E-01   -7.7220163090E-01   -7.7071376296E-01
   -7.6923161760E-01   -7.6775516186E-01   -7.6628436305E-01   -7.6481918871E-01
   -7.6335960666E-01   -7.6190558493E-01   -7.6045709180E-01   -7.5901409581E-01
   -7.5757656573E-01   -7.5614447055E-01   -7.5471777951E-01   -7.5329646209E-01
   -7.5188048797E-01   -7.5046982708E-01   -7.4906444958E-01   -7.4766432583E-01
   -7.4626942644E-01   -7.4487972221E-01   -7.4349518418E-01   -7.4211578359E-01
   -7.4074149191E-01   -7.3937228079E-01   -7.3800812212E-01   -7.3664898799E-01
   -7.3529485069E-01   -7.3394568270E-01   -7.3260145674E-01   -7.3126214568E-01
   -7.2992772264E-01   -7.2859816089E-01   -7.2727343391E-01   -7.2595351540E-01
   -7.2463837921E-01   -7.2332799940E-01   -7.2202235022E-01   -7.2072140608E-01
   -7.1942514161E-01   -7.1813353161E-01   -7.1684655104E-01   -7.1556417506E-01
   -7.1428637900E-01   -7.1301313838E-01   -7.1174442888E-01   -7.1048022635E-01
   -7.0922050681E-01   -7.0796524647E-01   -7.0671442169E-01   -7.0546800900E-01
   -7.0422598510E-01   -7.0298832685E-01   -7.0175501127E-01   -7.0052601554E-01
   -6.9930131702E-01   -6.9808089319E-01   -6.9686472172E-01   -6.9565278042E-01
   -6.9444504727E-01   -6.9324150037E-01   -6.9204211801E-01   -6.9084687860E-01
   -6.8965576072E-01   -6.8846874309E-01   -6.8728580456E-01   -6.8610692415E-01
   -6.8493208102E-01   -6.8376125445E-01   -6.8259442389E-01   -6.8143156891E-01
   -6.8027266924E-01   -6.7911770472E-01   -6.7796665534E-01   -6.7681950123E-01
   -6.7567622266E-01   -6.7453680001E-01   -6.7340121381E-01   -6.7226944472E-01
   -6.7114147352E-01   -6.7001728114E-01   -6.6889684860E-01   -6.6778015708E-01
   -6.6666718789E-01   -6.6555792242E-01   -6.6445234224E-01   -6.6335042900E-01
   -6.6225216449E-01   -6.6115753062E-01   -6.6006650941E-01   -6.5897908301E-01
   -6.5789523368E-01   -6.5681494381E-01   -6.5573819587E-01   -6.5466497250E-01
   -6.5359525640E-01   -6.5252903041E-01   -6.5146627748E-01   -6.5040698068E-01
   -6.4935112315E-01   -6.4829868820E-01   -6.4724965919E-01   -6.4620401962E-01
   -6.4516175310E-01   -6.4412284332E-01   -6.4308727411E-01   -6.4205502936E-01
   -6.4102609310E-01   -6.4000044945E-01   -6.3897808262E-01   -6.3795897695E-01
   -6.3694311685E-01   -6.3593048684E-01   -6.3492107154E-01   -6.3391485566E-01
   -6.3291182402E-01   -6.3191196153E-01   -6.3091525320E-01   -6.2992168411E-01
   -6.2893123947E-01   -6.2794390455E-01   -6.2695966474E-01   -6.2597850551E-01
   -6.2500041240E-01   -6.2402537109E-01   -6.2305336729E-01   -6.2208438685E-01