<UPF version="2.0.1">
  <PP_INFO>

 This pseudopotential file has been produced using the code
 ONCVPSP  (Optimized Norm-Conservinng Vanderbilt PSeudopotential)
 scalar-relativistic version 3.3.0 08/16/2017 by D. R. Hamann
 The code is available through a link at URL www.mat-simresearch.com.
 Documentation with the package provides a full discription of the
 input data below.


 While it is not required under the terms of the GNU GPL, it is
 suggested that you cite D. R. Hamann, Phys. Rev. B 88, 085117 (2013)
 in any publication using these pseudopotentials.

    <PP_INPUTFILE>
# ATOM AND REFERENCE CONFIGURATION
# atsym  z   nc   nv     iexc    psfile
  He  2.00    0    1       4      upf
#
#   n    l    f        energy (Ha)
    1    0    2.00
#
# PSEUDOPOTENTIAL AND OPTIMIZATION
# lmax
    0
#
#   l,   rc,      ep,       ncon, nbas, qcut
    0   1.98530  -0.57931    5    8   7.17231
#
# LOCAL POTENTIAL
# lloc, lpopt,  rc(5),   dvloc0
    4    5   0.89431      0.00000
#
# VANDERBILT-KLEINMAN-BYLANDER PROJECTORs
# l, nproj, debl
    0    2   1.34022
#
# MODEL CORE CHARGE
# icmod, fcfact, rcfact
    0   0.00000   0.00000
#
# LOG DERIVATIVE ANALYSIS
# epsh1, epsh2, depsh
   -5.00    3.00    0.02
#
# OUTPUT GRID
# rlmax, drl
    6.00    0.01
#
# TEST CONFIGURATIONS
# ncnf
    0
# nvcnf
#   n    l    f
    </PP_INPUTFILE>
  </PP_INFO>
  <!--                               -->
  <!-- END OF HUMAN READABLE SECTION -->
  <!--                               -->
    <PP_HEADER
       generated="Generated using ONCVPSP code by D. R. Hamann"
       author="anonymous"
       date="170818"
       comment=""
       element="He"
       pseudo_type="NC"
       relativistic="scalar"
       is_ultrasoft="F"
       is_paw="F"
       is_coulomb="F"
       has_so="F"
       has_wfc="F"
       has_gipaw="F"
       core_correction="F"
       functional="PBE"
       z_valence="    2.00"
       total_psenergy="  -5.58097850098E+00"
       rho_cutoff="   7.21000000000E+00"
       l_max="0"
       l_local="-1"
       mesh_size="   722"
       number_of_wfc="1"
       number_of_proj="2"/>
 <PP_MESH>
   <PP_R type="real"  size=" 722" columns="8">
    0.0000    0.0100    0.0200    0.0300    0.0400    0.0500    0.0600    0.0700
    0.0800    0.0900    0.1000    0.1100    0.1200    0.1300    0.1400    0.1500
    0.1600    0.1700    0.1800    0.1900    0.2000    0.2100    0.2200    0.2300
    0.2400    0.2500    0.2600    0.2700    0.2800    0.2900    0.3000    0.3100
    0.3200    0.3300    0.3400    0.3500    0.3600    0.3700    0.3800    0.3900
    0.4000    0.4100    0.4200    0.4300    0.4400    0.4500    0.4600    0.4700
    0.4800    0.4900    0.5000    0.5100    0.5200    0.5300    0.5400    0.5500
    0.5600    0.5700    0.5800    0.5900    0.6000    0.6100    0.6200    0.6300
    0.6400    0.6500    0.6600    0.6700    0.6800    0.6900    0.7000    0.7100
    0.7200    0.7300    0.7400    0.7500    0.7600    0.7700    0.7800    0.7900
    0.8000    0.8100    0.8200    0.8300    0.8400    0.8500    0.8600    0.8700
    0.8800    0.8900    0.9000    0.9100    0.9200    0.9300    0.9400    0.9500
    0.9600    0.9700    0.9800    0.9900    1.0000    1.0100    1.0200    1.0300
    1.0400    1.0500    1.0600    1.0700    1.0800    1.0900    1.1000    1.1100
    1.1200    1.1300    1.1400    1.1500    1.1600    1.1700    1.1800    1.1900
    1.2000    1.2100    1.2200    1.2300    1.2400    1.2500    1.2600    1.2700
    1.2800    1.2900    1.3000    1.3100    1.3200    1.3300    1.3400    1.3500
    1.3600    1.3700    1.3800    1.3900    1.4000    1.4100    1.4200    1.4300
    1.4400    1.4500    1.4600    1.4700    1.4800    1.4900    1.5000    1.5100
    1.5200    1.5300    1.5400    1.5500    1.5600    1.5700    1.5800    1.5900
    1.6000    1.6100    1.6200    1.6300    1.6400    1.6500    1.6600    1.6700
    1.6800    1.6900    1.7000    1.7100    1.7200    1.7300    1.7400    1.7500
    1.7600    1.7700    1.7800    1.7900    1.8000    1.8100    1.8200    1.8300
    1.8400    1.8500    1.8600    1.8700    1.8800    1.8900    1.9000    1.9100
    1.9200    1.9300    1.9400    1.9500    1.9600    1.9700    1.9800    1.9900
    2.0000    2.0100    2.0200    2.0300    2.0400    2.0500    2.0600    2.0700
    2.0800    2.0900    2.1000    2.1100    2.1200    2.1300    2.1400    2.1500
    2.1600    2.1700    2.1800    2.1900    2.2000    2.2100    2.2200    2.2300
    2.2400    2.2500    2.2600    2.2700    2.2800    2.2900    2.3000    2.3100
    2.3200    2.3300    2.3400    2.3500    2.3600    2.3700    2.3800    2.3900
    2.4000    2.4100    2.4200    2.4300    2.4400    2.4500    2.4600    2.4700
    2.4800    2.4900    2.5000    2.5100    2.5200    2.5300    2.5400    2.5500
    2.5600    2.5700    2.5800    2.5900    2.6000    2.6100    2.6200    2.6300
    2.6400    2.6500    2.6600    2.6700    2.6800    2.6900    2.7000    2.7100
    2.7200    2.7300    2.7400    2.7500    2.7600    2.7700    2.7800    2.7900
    2.8000    2.8100    2.8200    2.8300    2.8400    2.8500    2.8600    2.8700
    2.8800    2.8900    2.9000    2.9100    2.9200    2.9300    2.9400    2.9500
    2.9600    2.9700    2.9800    2.9900    3.0000    3.0100    3.0200    3.0300
    3.0400    3.0500    3.0600    3.0700    3.0800    3.0900    3.1000    3.1100
    3.1200    3.1300    3.1400    3.1500    3.1600    3.1700    3.1800    3.1900
    3.2000    3.2100    3.2200    3.2300    3.2400    3.2500    3.2600    3.2700
    3.2800    3.2900    3.3000    3.3100    3.3200    3.3300    3.3400    3.3500
    3.3600    3.3700    3.3800    3.3900    3.4000    3.4100    3.4200    3.4300
    3.4400    3.4500    3.4600    3.4700    3.4800    3.4900    3.5000    3.5100
    3.5200    3.5300    3.5400    3.5500    3.5600    3.5700    3.5800    3.5900
    3.6000    3.6100    3.6200    3.6300    3.6400    3.6500    3.6600    3.6700
    3.6800    3.6900    3.7000    3.7100    3.7200    3.7300    3.7400    3.7500
    3.7600    3.7700    3.7800    3.7900    3.8000    3.8100    3.8200    3.8300
    3.8400    3.8500    3.8600    3.8700    3.8800    3.8900    3.9000    3.9100
    3.9200    3.9300    3.9400    3.9500    3.9600    3.9700    3.9800    3.9900
    4.0000    4.0100    4.0200    4.0300    4.0400    4.0500    4.0600    4.0700
    4.0800    4.0900    4.1000    4.1100    4.1200    4.1300    4.1400    4.1500
    4.1600    4.1700    4.1800    4.1900    4.2000    4.2100    4.2200    4.2300
    4.2400    4.2500    4.2600    4.2700    4.2800    4.2900    4.3000    4.3100
    4.3200    4.3300    4.3400    4.3500    4.3600    4.3700    4.3800    4.3900
    4.4000    4.4100    4.4200    4.4300    4.4400    4.4500    4.4600    4.4700
    4.4800    4.4900    4.5000    4.5100    4.5200    4.5300    4.5400    4.5500
    4.5600    4.5700    4.5800    4.5900    4.6000    4.6100    4.6200    4.6300
    4.6400    4.6500    4.6600    4.6700    4.6800    4.6900    4.7000    4.7100
    4.7200    4.7300    4.7400    4.7500    4.7600    4.7700    4.7800    4.7900
    4.8000    4.8100    4.8200    4.8300    4.8400    4.8500    4.8600    4.8700
    4.8800    4.8900    4.9000    4.9100    4.9200    4.9300    4.9400    4.9500
    4.9600    4.9700    4.9800    4.9900    5.0000    5.0100    5.0200    5.0300
    5.0400    5.0500    5.0600    5.0700    5.0800    5.0900    5.1000    5.1100
    5.1200    5.1300    5.1400    5.1500    5.1600    5.1700    5.1800    5.1900
    5.2000    5.2100    5.2200    5.2300    5.2400    5.2500    5.2600    5.2700
    5.2800    5.2900    5.3000    5.3100    5.3200    5.3300    5.3400    5.3500
    5.3600    5.3700    5.3800    5.3900    5.4000    5.4100    5.4200    5.4300
    5.4400    5.4500    5.4600    5.4700    5.4800    5.4900    5.5000    5.5100
    5.5200    5.5300    5.5400    5.5500    5.5600    5.5700    5.5800    5.5900
    5.6000    5.6100    5.6200    5.6300    5.6400    5.6500    5.6600    5.6700
    5.6800    5.6900    5.7000    5.7100    5.7200    5.7300    5.7400    5.7500
    5.7600    5.7700    5.7800    5.7900    5.8000    5.8100    5.8200    5.8300
    5.8400    5.8500    5.8600    5.8700    5.8800    5.8900    5.9000    5.9100
    5.9200    5.9300    5.9400    5.9500    5.9600    5.9700    5.9800    5.9900
    6.0000    6.0100    6.0200    6.0300    6.0400    6.0500    6.0600    6.0700
    6.0800    6.0900    6.1000    6.1100    6.1200    6.1300    6.1400    6.1500
    6.1600    6.1700    6.1800    6.1900    6.2000    6.2100    6.2200    6.2300
    6.2400    6.2500    6.2600    6.2700    6.2800    6.2900    6.3000    6.3100
    6.3200    6.3300    6.3400    6.3500    6.3600    6.3700    6.3800    6.3900
    6.4000    6.4100    6.4200    6.4300    6.4400    6.4500    6.4600    6.4700
    6.4800    6.4900    6.5000    6.5100    6.5200    6.5300    6.5400    6.5500
    6.5600    6.5700    6.5800    6.5900    6.6000    6.6100    6.6200    6.6300
    6.6400    6.6500    6.6600    6.6700    6.6800    6.6900    6.7000    6.7100
    6.7200    6.7300    6.7400    6.7500    6.7600    6.7700    6.7800    6.7900
    6.8000    6.8100    6.8200    6.8300    6.8400    6.8500    6.8600    6.8700
    6.8800    6.8900    6.9000    6.9100    6.9200    6.9300    6.9400    6.9500
    6.9600    6.9700    6.9800    6.9900    7.0000    7.0100    7.0200    7.0300
    7.0400    7.0500    7.0600    7.0700    7.0800    7.0900    7.1000    7.1100
    7.1200    7.1300    7.1400    7.1500    7.1600    7.1700    7.1800    7.1900
    7.2000    7.2100
   </PP_R>
   <PP_RAB type="real"  size=" 722" columns="8">
    0.0100    0.0100    0.0100    0.0100    0.0100    0.0100    0.0100    0.0100
    0.0100    0.0100    0.0100    0.0100    0.0100    0.0100    0.0100    0.0100
    0.0100    0.0100    0.0100    0.0100    0.0100    0.0100    0.0100    0.0100
    0.0100    0.0100    0.0100    0.0100    0.0100    0.0100    0.0100    0.0100
    0.0100    0.0100    0.0100    0.0100    0.0100    0.0100    0.0100    0.0100
    0.0100    0.0100    0.0100    0.0100    0.0100    0.0100    0.0100    0.0100
    0.0100    0.0100    0.0100    0.0100    0.0100    0.0100    0.0100    0.0100
    0.0100    0.0100    0.0100    0.0100    0.0100    0.0100    0.0100    0.0100
    0.0100    0.0100    0.0100    0.0100    0.0100    0.0100    0.0100    0.0100
    0.0100    0.0100    0.0100    0.0100    0.0100    0.0100    0.0100    0.0100
    0.0100    0.0100    0.0100    0.0100    0.0100    0.0100    0.0100    0.0100
    0.0100    0.0100    0.0100    0.0100    0.0100    0.0100    0.0100    0.0100
    0.0100    0.0100    0.0100    0.0100    0.0100    0.0100    0.0100    0.0100
    0.0100    0.0100    0.0100    0.0100    0.0100    0.0100    0.0100    0.0100
    0.0100    0.0100    0.0100    0.0100    0.0100    0.0100    0.0100    0.0100
    0.0100    0.0100    0.0100    0.0100    0.0100    0.0100    0.0100    0.0100
    0.0100    0.0100    0.0100    0.0100    0.0100    0.0100    0.0100    0.0100
    0.0100    0.0100    0.0100    0.0100    0.0100    0.0100    0.0100    0.0100
    0.0100    0.0100    0.0100    0.0100    0.0100    0.0100    0.0100    0.0100
    0.0100    0.0100    0.0100    0.0100    0.0100    0.0100    0.0100    0.0100
    0.0100    0.0100    0.0100    0.0100    0.0100    0.0100    0.0100    0.0100
    0.0100    0.0100    0.0100    0.0100    0.0100    0.0100    0.0100    0.0100
    0.0100    0.0100    0.0100    0.0100    0.0100    0.0100    0.0100    0.0100
    0.0100    0.0100    0.0100    0.0100    0.0100    0.0100    0.0100    0.0100
    0.0100    0.0100    0.0100    0.0100    0.0100    0.0100    0.0100    0.0100
    0.0100    0.0100    0.0100    0.0100    0.0100    0.0100    0.0100    0.0100
    0.0100    0.0100    0.0100    0.0100    0.0100    0.0100    0.0100    0.0100
    0.0100    0.0100    0.0100    0.0100    0.0100    0.0100    0.0100    0.0100
    0.0100    0.0100    0.0100    0.0100    0.0100    0.0100    0.0100    0.0100
    0.0100    0.0100    0.0100    0.0100    0.0100    0.0100    0.0100    0.0100
    0.0100    0.0100    0.0100    0.0100    0.0100    0.0100    0.0100    0.0100
    0.0100    0.0100    0.0100    0.0100    0.0100    0.0100    0.0100    0.0100
    0.0100    0.0100    0.0100    0.0100    0.0100    0.0100    0.0100    0.0100
    0.0100    0.0100    0.0100    0.0100    0.0100    0.0100    0.0100    0.0100
    0.0100    0.0100    0.0100    0.0100    0.0100    0.0100    0.0100    0.0100
    0.0100    0.0100    0.0100    0.0100    0.0100    0.0100    0.0100    0.0100
    0.0100    0.0100    0.0100    0.0100    0.0100    0.0100    0.0100    0.0100
    0.0100    0.0100    0.0100    0.0100    0.0100    0.0100    0.0100    0.0100
    0.0100    0.0100    0.0100    0.0100    0.0100    0.0100    0.0100    0.0100
    0.0100    0.0100    0.0100    0.0100    0.0100    0.0100    0.0100    0.0100
    0.0100    0.0100    0.0100    0.0100    0.0100    0.0100    0.0100    0.0100
    0.0100    0.0100    0.0100    0.0100    0.0100    0.0100    0.0100    0.0100
    0.0100    0.0100    0.0100    0.0100    0.0100    0.0100    0.0100    0.0100
    0.0100    0.0100    0.0100    0.0100    0.0100    0.0100    0.0100    0.0100
    0.0100    0.0100    0.0100    0.0100    0.0100    0.0100    0.0100    0.0100
    0.0100    0.0100    0.0100    0.0100    0.0100    0.0100    0.0100    0.0100
    0.0100    0.0100    0.0100    0.0100    0.0100    0.0100    0.0100    0.0100
    0.0100    0.0100    0.0100    0.0100    0.0100    0.0100    0.0100    0.0100
    0.0100    0.0100    0.0100    0.0100    0.0100    0.0100    0.0100    0.0100
    0.0100    0.0100    0.0100    0.0100    0.0100    0.0100    0.0100    0.0100
    0.0100    0.0100    0.0100    0.0100    0.0100    0.0100    0.0100    0.0100
    0.0100    0.0100    0.0100    0.0100    0.0100    0.0100    0.0100    0.0100
    0.0100    0.0100    0.0100    0.0100    0.0100    0.0100    0.0100    0.0100
    0.0100    0.0100    0.0100    0.0100    0.0100    0.0100    0.0100    0.0100
    0.0100    0.0100    0.0100    0.0100    0.0100    0.0100    0.0100    0.0100
    0.0100    0.0100    0.0100    0.0100    0.0100    0.0100    0.0100    0.0100
    0.0100    0.0100    0.0100    0.0100    0.0100    0.0100    0.0100    0.0100
    0.0100    0.0100    0.0100    0.0100    0.0100    0.0100    0.0100    0.0100
    0.0100    0.0100    0.0100    0.0100    0.0100    0.0100    0.0100    0.0100
    0.0100    0.0100    0.0100    0.0100    0.0100    0.0100    0.0100    0.0100
    0.0100    0.0100    0.0100    0.0100    0.0100    0.0100    0.0100    0.0100
    0.0100    0.0100    0.0100    0.0100    0.0100    0.0100    0.0100    0.0100
    0.0100    0.0100    0.0100    0.0100    0.0100    0.0100    0.0100    0.0100
    0.0100    0.0100    0.0100    0.0100    0.0100    0.0100    0.0100    0.0100
    0.0100    0.0100    0.0100    0.0100    0.0100    0.0100    0.0100    0.0100
    0.0100    0.0100    0.0100    0.0100    0.0100    0.0100    0.0100    0.0100
    0.0100    0.0100    0.0100    0.0100    0.0100    0.0100    0.0100    0.0100
    0.0100    0.0100    0.0100    0.0100    0.0100    0.0100    0.0100    0.0100
    0.0100    0.0100    0.0100    0.0100    0.0100    0.0100    0.0100    0.0100
    0.0100    0.0100    0.0100    0.0100    0.0100    0.0100    0.0100    0.0100
    0.0100    0.0100    0.0100    0.0100    0.0100    0.0100    0.0100    0.0100
    0.0100    0.0100    0.0100    0.0100    0.0100    0.0100    0.0100    0.0100
    0.0100    0.0100    0.0100    0.0100    0.0100    0.0100    0.0100    0.0100
    0.0100    0.0100    0.0100    0.0100    0.0100    0.0100    0.0100    0.0100
    0.0100    0.0100    0.0100    0.0100    0.0100    0.0100    0.0100    0.0100
    0.0100    0.0100    0.0100    0.0100    0.0100    0.0100    0.0100    0.0100
    0.0100    0.0100    0.0100    0.0100    0.0100    0.0100    0.0100    0.0100
    0.0100    0.0100    0.0100    0.0100    0.0100    0.0100    0.0100    0.0100
    0.0100    0.0100    0.0100    0.0100    0.0100    0.0100    0.0100    0.0100
    0.0100    0.0100    0.0100    0.0100    0.0100    0.0100    0.0100    0.0100
    0.0100    0.0100    0.0100    0.0100    0.0100    0.0100    0.0100    0.0100
    0.0100    0.0100    0.0100    0.0100    0.0100    0.0100    0.0100    0.0100
    0.0100    0.0100    0.0100    0.0100    0.0100    0.0100    0.0100    0.0100
    0.0100    0.0100    0.0100    0.0100    0.0100    0.0100    0.0100    0.0100
    0.0100    0.0100    0.0100    0.0100    0.0100    0.0100    0.0100    0.0100
    0.0100    0.0100    0.0100    0.0100    0.0100    0.0100    0.0100    0.0100
    0.0100    0.0100    0.0100    0.0100    0.0100    0.0100    0.0100    0.0100
    0.0100    0.0100    0.0100    0.0100    0.0100    0.0100    0.0100    0.0100
    0.0100    0.0100    0.0100    0.0100    0.0100    0.0100    0.0100    0.0100
    0.0100    0.0100    0.0100    0.0100    0.0100    0.0100    0.0100    0.0100
    0.0100    0.0100
   </PP_RAB>
 </PP_MESH>
  <PP_LOCAL type="real"  size=" 722" columns="4">
   -9.7047917074E+00   -9.7033994902E+00   -9.6992248968E+00   -9.6922740631E+00
   -9.6825571831E+00   -9.6700884577E+00   -9.6548860255E+00   -9.6369718742E+00
   -9.6163717376E+00   -9.5931149761E+00   -9.5672344453E+00   -9.5387663533E+00
   -9.5077501085E+00   -9.4742281612E+00   -9.4382458403E+00   -9.3998511860E+00
   -9.3590947831E+00   -9.3160295936E+00   -9.2707107925E+00   -9.2231956060E+00
   -9.1735431559E+00   -9.1218143083E+00   -9.0680715291E+00   -9.0123787471E+00
   -8.9548012228E+00   -8.8954054256E+00   -8.8342589184E+00   -8.7714302479E+00
   -8.7069888433E+00   -8.6410049204E+00   -8.5735493916E+00   -8.5046937814E+00
   -8.4345101468E+00   -8.3630710010E+00   -8.2904492417E+00   -8.2167180806E+00
   -8.1419509768E+00   -8.0662215704E+00   -7.9896036181E+00   -7.9121709284E+00
   -7.8339972977E+00   -7.7551564452E+00   -7.6757219476E+00   -7.5957671720E+00
   -7.5153652083E+00   -7.4345887987E+00   -7.3535102661E+00   -7.2722014401E+00
   -7.1907335811E+00   -7.1091773014E+00   -7.0276024843E+00   -6.9460782010E+00
   -6.8646726246E+00   -6.7834529418E+00   -6.7024852624E+00   -6.6218345262E+00
   -6.5415644076E+00   -6.4617372186E+00   -6.3824138088E+00   -6.3036534647E+00
   -6.2255138064E+00   -6.1480506827E+00   -6.0713180656E+00   -5.9953679431E+00
   -5.9202502109E+00   -5.8460125638E+00   -5.7727003867E+00   -5.7003566447E+00
   -5.6290217741E+00   -5.5587335732E+00   -5.4895270939E+00   -5.4214345336E+00
   -5.3544851290E+00   -5.2887050500E+00   -5.2241172962E+00   -5.1607415939E+00
   -5.0985942953E+00   -5.0376882791E+00   -4.9780328531E+00   -4.9196336577E+00
   -4.8624925718E+00   -4.8066076190E+00   -4.7519728750E+00   -4.6985783763E+00
   -4.6464100276E+00   -4.5954495105E+00   -4.5456741902E+00   -4.4970570207E+00
   -4.4495664469E+00   -4.4031663471E+00   -4.3578157630E+00   -4.3134706342E+00
   -4.2700873537E+00   -4.2276245027E+00   -4.1860426150E+00   -4.1453041781E+00
   -4.1053735857E+00   -4.0662170902E+00   -4.0278027557E+00   -3.9901004092E+00
   -3.9530815902E+00   -3.9167194986E+00   -3.8809889400E+00   -3.8458662691E+00
   -3.8113293314E+00   -3.7773574023E+00   -3.7439311248E+00   -3.7110324460E+00
   -3.6786445521E+00   -3.6467518023E+00   -3.6153396635E+00   -3.5843946431E+00
   -3.5539042240E+00   -3.5238567990E+00   -3.4942416072E+00   -3.4650486705E+00
   -3.4362687328E+00   -3.4078932026E+00   -3.3799140948E+00   -3.3523239760E+00
   -3.3251159143E+00   -3.2982834295E+00   -3.2718204473E+00   -3.2457212556E+00
   -3.2199804647E+00   -3.1945929694E+00   -3.1695539142E+00   -3.1448586616E+00
   -3.1205027621E+00   -3.0964819277E+00   -3.0727920072E+00   -3.0494289636E+00
   -3.0263888538E+00   -3.0036678100E+00   -2.9812620232E+00   -2.9591677274E+00
   -2.9373811863E+00   -2.9158986802E+00   -2.8947164949E+00   -2.8738309109E+00
   -2.8532381943E+00   -2.8329345874E+00   -2.8129163016E+00   -2.7931795097E+00
   -2.7737203397E+00   -2.7545348689E+00   -2.7356191195E+00   -2.7169690540E+00
   -2.6985805722E+00   -2.6804495090E+00   -2.6625716329E+00   -2.6449426460E+00
   -2.6275581848E+00   -2.6104138222E+00   -2.5935050713E+00   -2.5768273896E+00
   -2.5603761851E+00   -2.5441468238E+00   -2.5281346384E+00   -2.5123349375E+00
   -2.4967430173E+00   -2.4813541730E+00   -2.4661637120E+00   -2.4511669676E+00
   -2.4363593130E+00   -2.4217361757E+00   -2.4072930526E+00   -2.3930255238E+00
   -2.3789292676E+00   -2.3650000734E+00   -2.3512338549E+00   -2.3376266615E+00
   -2.3241746894E+00   -2.3108742897E+00   -2.2977219772E+00   -2.2847144349E+00
   -2.2718485191E+00   -2.2591212609E+00   -2.2465298668E+00   -2.2340717170E+00
   -2.2217443621E+00   -2.2095455176E+00   -2.1974730571E+00   -2.1855250042E+00
   -2.1736995220E+00   -2.1619949026E+00   -2.1504095543E+00   -2.1389419889E+00
   -2.1275908081E+00   -2.1163546887E+00   -2.1052323685E+00   -2.0942226317E+00
   -2.0833242939E+00   -2.0725361885E+00   -2.0618571536E+00   -2.0512860168E+00
   -2.0408215864E+00   -2.0304626357E+00   -2.0202078910E+00   -2.0100560235E+00
   -2.0000056537E+00   -1.9900553208E+00   -1.9802035385E+00   -1.9704488298E+00
   -1.9607897438E+00   -1.9512248630E+00   -1.9417528296E+00   -1.9323723201E+00
   -1.9230820168E+00   -1.9138806196E+00   -1.9047668537E+00   -1.8957394749E+00
   -1.8867972618E+00   -1.8779390146E+00   -1.8691635562E+00   -1.8604697313E+00
   -1.8518564061E+00   -1.8433224678E+00   -1.8348668238E+00   -1.8264884016E+00
   -1.8181861481E+00   -1.8099590295E+00   -1.8018060303E+00   -1.7937261534E+00
   -1.7857184194E+00   -1.7777818666E+00   -1.7699155499E+00   -1.7621185411E+00
   -1.7543899282E+00   -1.7467288153E+00   -1.7391343218E+00   -1.7316055826E+00
   -1.7241417473E+00   -1.7167419804E+00   -1.7094054603E+00   -1.7021313796E+00
   -1.6949189446E+00   -1.6877673750E+00   -1.6806759036E+00   -1.6736437758E+00
   -1.6666702500E+00   -1.6597545966E+00   -1.6528960982E+00   -1.6460940491E+00
   -1.6393477552E+00   -1.6326565339E+00   -1.6260197134E+00   -1.6194366331E+00
   -1.6129066428E+00   -1.6064291028E+00   -1.6000033838E+00   -1.5936288663E+00
   -1.5873049408E+00   -1.5810310074E+00   -1.5748064755E+00   -1.5686307640E+00
   -1.5625033007E+00   -1.5564235224E+00   -1.5503908746E+00   -1.5444048114E+00
   -1.5384647952E+00   -1.5325702968E+00   -1.5267207949E+00   -1.5209157762E+00
   -1.5151547353E+00   -1.5094371742E+00   -1.5037626026E+00   -1.4981305374E+00
   -1.4925405028E+00   -1.4869920300E+00   -1.4814846572E+00   -1.4760179294E+00
   -1.4705913984E+00   -1.4652046223E+00   -1.4598571659E+00   -1.4545486003E+00
   -1.4492785026E+00   -1.4440464563E+00   -1.4388520507E+00   -1.4336948811E+00
   -1.4285745485E+00   -1.4234906596E+00   -1.4184428267E+00   -1.4134306675E+00
   -1.4084538053E+00   -1.4035118684E+00   -1.3986044906E+00   -1.3937313105E+00
   -1.3888919719E+00   -1.3840861236E+00   -1.3793134190E+00   -1.3745735164E+00
   -1.3698660789E+00   -1.3651907740E+00   -1.3605472739E+00   -1.3559352550E+00
   -1.3513543984E+00   -1.3468043892E+00   -1.3422849169E+00   -1.3377956751E+00
   -1.3333363614E+00   -1.3289066777E+00   -1.3245063295E+00   -1.3201350264E+00
   -1.3157924818E+00   -1.3114784128E+00   -1.3071925401E+00   -1.3029345884E+00
   -1.2987042855E+00   -1.2945013631E+00   -1.2903255563E+00   -1.2861766033E+00
   -1.2820542461E+00   -1.2779582296E+00   -1.2738883023E+00   -1.2698442157E+00
   -1.2658257244E+00   -1.2618325862E+00   -1.2578645620E+00   -1.2539214155E+00
   -1.2500029135E+00   -1.2461088257E+00   -1.2422389246E+00   -1.2383929856E+00
   -1.2345707869E+00   -1.2307721092E+00   -1.2269967361E+00   -1.2232444538E+00
   -1.2195150512E+00   -1.2158083196E+00   -1.2121240528E+00   -1.2084620473E+00
   -1.2048221020E+00   -1.2012040180E+00   -1.1976075991E+00   -1.1940326511E+00
   -1.1904789825E+00   -1.1869464037E+00   -1.1834347277E+00   -1.1799437693E+00
   -1.1764733459E+00   -1.1730232767E+00   -1.1695933832E+00   -1.1661834890E+00
   -1.1627934195E+00   -1.1594230026E+00   -1.1560720676E+00   -1.1527404463E+00
   -1.1494279721E+00   -1.1461344804E+00   -1.1428598086E+00   -1.1396037957E+00
   -1.1363662828E+00   -1.1331471126E+00   -1.1299461297E+00   -1.1267631803E+00
   -1.1235981126E+00   -1.1204507763E+00   -1.1173210227E+00   -1.1142087049E+00
   -1.1111136777E+00   -1.1080357974E+00   -1.1049749218E+00   -1.1019309104E+00
   -1.0989036243E+00   -1.0958929259E+00   -1.0928986794E+00   -1.0899207501E+00
   -1.0869590052E+00   -1.0840133130E+00   -1.0810835433E+00   -1.0781695675E+00
   -1.0752712581E+00   -1.0723884891E+00   -1.0695211360E+00   -1.0666690753E+00
   -1.0638321850E+00   -1.0610103445E+00   -1.0582034343E+00   -1.0554113362E+00
   -1.0526339333E+00   -1.0498711098E+00   -1.0471227513E+00   -1.0443887445E+00
   -1.0416689772E+00   -1.0389633386E+00   -1.0362717187E+00   -1.0335940089E+00
   -1.0309301017E+00   -1.0282798906E+00   -1.0256432703E+00   -1.0230201364E+00
   -1.0204103859E+00   -1.0178139164E+00   -1.0152306270E+00   -1.0126604174E+00
   -1.0101031887E+00   -1.0075588426E+00   -1.0050272822E+00   -1.0025084112E+00
   -1.0000021346E+00   -9.9750835802E-01   -9.9502698826E-01   -9.9255793295E-01
   -9.9010110064E-01   -9.8765640080E-01   -9.8522374377E-01   -9.8280304079E-01
   -9.8039420397E-01   -9.7799714626E-01   -9.7561178148E-01   -9.7323802429E-01
   -9.7087579015E-01   -9.6852499537E-01   -9.6618555706E-01   -9.6385739312E-01
   -9.6154042224E-01   -9.5923456391E-01   -9.5693973837E-01   -9.5465586662E-01
   -9.5238287043E-01   -9.5012067229E-01   -9.4786919545E-01   -9.4562836387E-01
   -9.4339810222E-01   -9.4117833591E-01   -9.3896899101E-01   -9.3676999431E-01
   -9.3458127328E-01   -9.3240275607E-01   -9.3023437147E-01   -9.2807604897E-01
   -9.2592771868E-01   -9.2378931139E-01   -9.2166075849E-01   -9.1954199204E-01
   -9.1743294468E-01   -9.1533354970E-01   -9.1324374099E-01   -9.1116345303E-01
   -9.0909262093E-01   -9.0703118034E-01   -9.0497906753E-01   -9.0293621933E-01
   -9.0090257314E-01   -8.9887806693E-01   -8.9686263921E-01   -8.9485622907E-01
   -8.9285877610E-01   -8.9087022048E-01   -8.8889050287E-01   -8.8691956450E-01
   -8.8495734709E-01   -8.8300379289E-01   -8.8105884466E-01   -8.7912244564E-01
   -8.7719453961E-01   -8.7527507080E-01   -8.7336398394E-01   -8.7146122427E-01
   -8.6956673746E-01   -8.6768046969E-01   -8.6580236758E-01   -8.6393237823E-01
   -8.6207044917E-01   -8.6021652842E-01   -8.5837056441E-01   -8.5653250603E-01
   -8.5470230261E-01   -8.5287990389E-01   -8.5106526007E-01   -8.4925832175E-01
   -8.4745903995E-01   -8.4566736611E-01   -8.4388325208E-01   -8.4210665012E-01
   -8.4033751288E-01   -8.3857579341E-01   -8.3682144516E-01   -8.3507442197E-01
   -8.3333467804E-01   -8.3160216798E-01   -8.2987684677E-01   -8.2815866976E-01
   -8.2644759265E-01   -8.2474357155E-01   -8.2304656288E-01   -8.2135652346E-01
   -8.1967341044E-01   -8.1799718133E-01   -8.1632779398E-01   -8.1466520658E-01
   -8.1300937768E-01   -8.1136026615E-01   -8.0971783120E-01   -8.0808203235E-01
   -8.0645282948E-01   -8.0483018277E-01   -8.0321405272E-01   -8.0160440016E-01
   -8.0000118622E-01   -7.9840437235E-01   -7.9681392030E-01   -7.9522979212E-01
   -7.9365195018E-01   -7.9208035712E-01   -7.9051497592E-01   -7.8895576979E-01
   -7.8740270229E-01   -7.8585573722E-01   -7.8431483870E-01   -7.8277997110E-01
   -7.8125109909E-01   -7.7972818761E-01   -7.7821120186E-01   -7.7670010734E-01
   -7.7519486978E-01   -7.7369545521E-01   -7.7220182989E-01   -7.7071396037E-01
   -7.6923181343E-01   -7.6775535614E-01   -7.6628455578E-01   -7.6481937991E-01
   -7.6335979633E-01   -7.6190577307E-01   -7.6045727844E-01   -7.5901428096E-01
   -7.5757674938E-01   -7.5614465273E-01   -7.5471796022E-01   -7.5329664134E-01
   -7.5188066577E-01   -7.5047000344E-01   -7.4906462451E-01   -7.4766449935E-01
   -7.4626959854E-01   -7.4487989291E-01   -7.4349535349E-01   -7.4211595152E-01
   -7.4074165846E-01   -7.3937244597E-01   -7.3800828595E-01   -7.3664915047E-01
   -7.3529501183E-01   -7.3394584251E-01   -7.3260161522E-01   -7.3126230286E-01
   -7.2992787850E-01   -7.2859831546E-01   -7.2727358720E-01   -7.2595366740E-01
   -7.2463852994E-01   -7.2332814887E-01   -7.2202249843E-01   -7.2072155304E-01
   -7.1942528734E-01   -7.1813367610E-01   -7.1684669430E-01   -7.1556431710E-01
   -7.1428651984E-01   -7.1301327802E-01   -7.1174456732E-01   -7.1048036360E-01
   -7.0922064289E-01   -7.0796538137E-01   -7.0671455543E-01   -7.0546814158E-01
   -7.0422611653E-01   -7.0298845713E-01   -7.0175514041E-01   -7.0052614355E-01
   -6.9930144390E-01   -6.9808101895E-01   -6.9686484637E-01   -6.9565290397E-01
   -6.9444516972E-01   -6.9324162173E-01   -6.9204223828E-01   -6.9084699779E-01
   -6.8965587884E-01   -6.8846886014E-01   -6.8728592055E-01   -6.8610703908E-01
   -6.8493219490E-01   -6.8376136729E-01   -6.8259453569E-01   -6.8143167968E-01
   -6.8027277897E-01   -6.7911781343E-01   -6.7796676303E-01   -6.7681960791E-01
   -6.7567632833E-01   -6.7453690468E-01   -6.7340131749E-01   -6.7226954741E-01
   -6.7114157522E-01   -6.7001738185E-01   -6.6889694834E-01   -6.6778025585E-01
   -6.6666728569E-01   -6.6555801926E-01   -6.6445243812E-01   -6.6335052393E-01
   -6.6225225847E-01   -6.6115762365E-01   -6.6006660150E-01   -6.5897917416E-01
   -6.5789532390E-01   -6.5681503310E-01   -6.5573828424E-01   -6.5466505995E-01
   -6.5359534293E-01   -6.5252911603E-01   -6.5146636219E-01   -6.5040706448E-01
   -6.4935120605E-01   -6.4829877020E-01   -6.4724974029E-01   -6.4620409983E-01
   -6.4516183242E-01   -6.4412292176E-01   -6.4308735166E-01   -6.4205510603E-01
   -6.4102616889E-01   -6.4000052437E-01   -6.3897815667E-01   -6.3795905013E-01
   -6.3694318916E-01   -6.3593055828E-01   -6.3492114212E-01   -6.3391492539E-01
   -6.3291189289E-01   -6.3191202955E-01   -6.3091532036E-01   -6.2992175042E-01
   -6.2893130493E-01   -6.2794396917E-01   -6.2695972851E-01   -6.2597856844E-01
   -6.2500047449E-01   -6.2402543234E-01   -6.2305342770E-01   -6.2208444643E-01