<UPF version="2.0.1">
  <PP_INFO>

 This pseudopotential file has been produced using the code
 ONCVPSP  (Optimized Norm-Conservinng Vanderbilt PSeudopotential)
 fully-relativistic version 3.3.0 08/16/2017 by D. R. Hamann
 The code is available through a link at URL www.mat-simresearch.com.
 Documentation with the package provides a full discription of the
 input data below.


 While it is not required under the terms of the GNU GPL, it is
 suggested that you cite D. R. Hamann, Phys. Rev. B 88, 085117 (2013)
 in any publication using these pseudopotentials.

    <PP_INPUTFILE>
# ATOM AND REFERENCE CONFIGURATION
# atsym  z   nc   nv     iexc    psfile
  Ne 10.00    1    2       4      upf
#
#   n    l    f        energy (Ha)
    1    0    2.00
    2    0    2.00
    2    1    6.00
#
# PSEUDOPOTENTIAL AND OPTIMIZATION
# lmax
    1
#
#   l,   rc,     ep,   ncon, nbas, qcut
    0   2.61642  -1.33781    5    8   7.96858
    1   2.63783  -0.48870    5    8   6.60628
#
# LOCAL POTENTIAL
# lloc, lpopt,  rc(5),   dvloc0
    4    5   2.61477      0.00000
#
# VANDERBILT-KLEINMAN-BYLANDER PROJECTORs
# l, nproj, debl
    0    2   1.54861
    1    2   1.10873
#
# MODEL CORE CHARGE
# icmod, fcfact, rcfact
    0   0.00000   0.00000
#
# LOG DERIVATIVE ANALYSIS
# epsh1, epsh2, depsh
   -5.00    3.00    0.02
#
# OUTPUT GRID
# rlmax, drl
    6.00    0.01
#
# TEST CONFIGURATIONS
# ncnf
    0
# nvcnf
#   n    l    f
    </PP_INPUTFILE>
  </PP_INFO>
  <!--                               -->
  <!-- END OF HUMAN READABLE SECTION -->
  <!--                               -->
    <PP_HEADER
       generated="Generated using ONCVPSP code by D. R. Hamann"
       author="anonymous"
       date="170818"
       comment=""
       element="Ne"
       pseudo_type="NC"
       relativistic="full"
       is_ultrasoft="F"
       is_paw="F"
       is_coulomb="F"
       has_so="T"
       has_wfc="F"
       has_gipaw="F"
       core_correction="F"
       functional="PBE"
       z_valence="    8.00"
       total_psenergy="  -6.10361957923E+01"
       rho_cutoff="   7.57000000000E+00"
       l_max="1"
       l_local="-1"
       mesh_size="   758"
       number_of_wfc="3"
       number_of_proj="6"/>
 <PP_MESH>
   <PP_R type="real"  size=" 758" columns="8">
    0.0000    0.0100    0.0200    0.0300    0.0400    0.0500    0.0600    0.0700
    0.0800    0.0900    0.1000    0.1100    0.1200    0.1300    0.1400    0.1500
    0.1600    0.1700    0.1800    0.1900    0.2000    0.2100    0.2200    0.2300
    0.2400    0.2500    0.2600    0.2700    0.2800    0.2900    0.3000    0.3100
    0.3200    0.3300    0.3400    0.3500    0.3600    0.3700    0.3800    0.3900
    0.4000    0.4100    0.4200    0.4300    0.4400    0.4500    0.4600    0.4700
    0.4800    0.4900    0.5000    0.5100    0.5200    0.5300    0.5400    0.5500
    0.5600    0.5700    0.5800    0.5900    0.6000    0.6100    0.6200    0.6300
    0.6400    0.6500    0.6600    0.6700    0.6800    0.6900    0.7000    0.7100
    0.7200    0.7300    0.7400    0.7500    0.7600    0.7700    0.7800    0.7900
    0.8000    0.8100    0.8200    0.8300    0.8400    0.8500    0.8600    0.8700
    0.8800    0.8900    0.9000    0.9100    0.9200    0.9300    0.9400    0.9500
    0.9600    0.9700    0.9800    0.9900    1.0000    1.0100    1.0200    1.0300
    1.0400    1.0500    1.0600    1.0700    1.0800    1.0900    1.1000    1.1100
    1.1200    1.1300    1.1400    1.1500    1.1600    1.1700    1.1800    1.1900
    1.2000    1.2100    1.2200    1.2300    1.2400    1.2500    1.2600    1.2700
    1.2800    1.2900    1.3000    1.3100    1.3200    1.3300    1.3400    1.3500
    1.3600    1.3700    1.3800    1.3900    1.4000    1.4100    1.4200    1.4300
    1.4400    1.4500    1.4600    1.4700    1.4800    1.4900    1.5000    1.5100
    1.5200    1.5300    1.5400    1.5500    1.5600    1.5700    1.5800    1.5900
    1.6000    1.6100    1.6200    1.6300    1.6400    1.6500    1.6600    1.6700
    1.6800    1.6900    1.7000    1.7100    1.7200    1.7300    1.7400    1.7500
    1.7600    1.7700    1.7800    1.7900    1.8000    1.8100    1.8200    1.8300
    1.8400    1.8500    1.8600    1.8700    1.8800    1.8900    1.9000    1.9100
    1.9200    1.9300    1.9400    1.9500    1.9600    1.9700    1.9800    1.9900
    2.0000    2.0100    2.0200    2.0300    2.0400    2.0500    2.0600    2.0700
    2.0800    2.0900    2.1000    2.1100    2.1200    2.1300    2.1400    2.1500
    2.1600    2.1700    2.1800    2.1900    2.2000    2.2100    2.2200    2.2300
    2.2400    2.2500    2.2600    2.2700    2.2800    2.2900    2.3000    2.3100
    2.3200    2.3300    2.3400    2.3500    2.3600    2.3700    2.3800    2.3900
    2.4000    2.4100    2.4200    2.4300    2.4400    2.4500    2.4600    2.4700
    2.4800    2.4900    2.5000    2.5100    2.5200    2.5300    2.5400    2.5500
    2.5600    2.5700    2.5800    2.5900    2.6000    2.6100    2.6200    2.6300
    2.6400    2.6500    2.6600    2.6700    2.6800    2.6900    2.7000    2.7100
    2.7200    2.7300    2.7400    2.7500    2.7600    2.7700    2.7800    2.7900
    2.8000    2.8100    2.8200    2.8300    2.8400    2.8500    2.8600    2.8700
    2.8800    2.8900    2.9000    2.9100    2.9200    2.9300    2.9400    2.9500
    2.9600    2.9700    2.9800    2.9900    3.0000    3.0100    3.0200    3.0300
    3.0400    3.0500    3.0600    3.0700    3.0800    3.0900    3.1000    3.1100
    3.1200    3.1300    3.1400    3.1500    3.1600    3.1700    3.1800    3.1900
    3.2000    3.2100    3.2200    3.2300    3.2400    3.2500    3.2600    3.2700
    3.2800    3.2900    3.3000    3.3100    3.3200    3.3300    3.3400    3.3500
    3.3600    3.3700    3.3800    3.3900    3.4000    3.4100    3.4200    3.4300
    3.4400    3.4500    3.4600    3.4700    3.4800    3.4900    3.5000    3.5100
    3.5200    3.5300    3.5400    3.5500    3.5600    3.5700    3.5800    3.5900
    3.6000    3.6100    3.6200    3.6300    3.6400    3.6500    3.6600    3.6700
    3.6800    3.6900    3.7000    3.7100    3.7200    3.7300    3.7400    3.7500
    3.7600    3.7700    3.7800    3.7900    3.8000    3.8100    3.8200    3.8300
    3.8400    3.8500    3.8600    3.8700    3.8800    3.8900    3.9000    3.9100
    3.9200    3.9300    3.9400    3.9500    3.9600    3.9700    3.9800    3.9900
    4.0000    4.0100    4.0200    4.0300    4.0400    4.0500    4.0600    4.0700
    4.0800    4.0900    4.1000    4.1100    4.1200    4.1300    4.1400    4.1500
    4.1600    4.1700    4.1800    4.1900    4.2000    4.2100    4.2200    4.2300
    4.2400    4.2500    4.2600    4.2700    4.2800    4.2900    4.3000    4.3100
    4.3200    4.3300    4.3400    4.3500    4.3600    4.3700    4.3800    4.3900
    4.4000    4.4100    4.4200    4.4300    4.4400    4.4500    4.4600    4.4700
    4.4800    4.4900    4.5000    4.5100    4.5200    4.5300    4.5400    4.5500
    4.5600    4.5700    4.5800    4.5900    4.6000    4.6100    4.6200    4.6300
    4.6400    4.6500    4.6600    4.6700    4.6800    4.6900    4.7000    4.7100
    4.7200    4.7300    4.7400    4.7500    4.7600    4.7700    4.7800    4.7900
    4.8000    4.8100    4.8200    4.8300    4.8400    4.8500    4.8600    4.8700
    4.8800    4.8900    4.9000    4.9100    4.9200    4.9300    4.9400    4.9500
    4.9600    4.9700    4.9800    4.9900    5.0000    5.0100    5.0200    5.0300
    5.0400    5.0500    5.0600    5.0700    5.0800    5.0900    5.1000    5.1100
    5.1200    5.1300    5.1400    5.1500    5.1600    5.1700    5.1800    5.1900
    5.2000    5.2100    5.2200    5.2300    5.2400    5.2500    5.2600    5.2700
    5.2800    5.2900    5.3000    5.3100    5.3200    5.3300    5.3400    5.3500
    5.3600    5.3700    5.3800    5.3900    5.4000    5.4100    5.4200    5.4300
    5.4400    5.4500    5.4600    5.4700    5.4800    5.4900    5.5000    5.5100
    5.5200    5.5300    5.5400    5.5500    5.5600    5.5700    5.5800    5.5900
    5.6000    5.6100    5.6200    5.6300    5.6400    5.6500    5.6600    5.6700
    5.6800    5.6900    5.7000    5.7100    5.7200    5.7300    5.7400    5.7500
    5.7600    5.7700    5.7800    5.7900    5.8000    5.8100    5.8200    5.8300
    5.8400    5.8500    5.8600    5.8700    5.8800    5.8900    5.9000    5.9100
    5.9200    5.9300    5.9400    5.9500    5.9600    5.9700    5.9800    5.9900
    6.0000    6.0100    6.0200    6.0300    6.0400    6.0500    6.0600    6.0700
    6.0800    6.0900    6.1000    6.1100    6.1200    6.1300    6.1400    6.1500
    6.1600    6.1700    6.1800    6.1900    6.2000    6.2100    6.2200    6.2300
    6.2400    6.2500    6.2600    6.2700    6.2800    6.2900    6.3000    6.3100
    6.3200    6.3300    6.3400    6.3500    6.3600    6.3700    6.3800    6.3900
    6.4000    6.4100    6.4200    6.4300    6.4400    6.4500    6.4600    6.4700
    6.4800    6.4900    6.5000    6.5100    6.5200    6.5300    6.5400    6.5500
    6.5600    6.5700    6.5800    6.5900    6.6000    6.6100    6.6200    6.6300
    6.6400    6.6500    6.6600    6.6700    6.6800    6.6900    6.7000    6.7100
    6.7200    6.7300    6.7400    6.7500    6.7600    6.7700    6.7800    6.7900
    6.8000    6.8100    6.8200    6.8300    6.8400    6.8500    6.8600    6.8700
    6.8800    6.8900    6.9000    6.9100    6.9200    6.9300    6.9400    6.9500
    6.9600    6.9700    6.9800    6.9900    7.0000    7.0100    7.0200    7.0300
    7.0400    7.0500    7.0600    7.0700    7.0800    7.0900    7.1000    7.1100
    7.1200    7.1300    7.1400    7.1500    7.1600    7.1700    7.1800    7.1900
    7.2000    7.2100    7.2200    7.2300    7.2400    7.2500    7.2600    7.2700
    7.2800    7.2900    7.3000    7.3100    7.3200    7.3300    7.3400    7.3500
    7.3600    7.3700    7.3800    7.3900    7.4000    7.4100    7.4200    7.4300
    7.4400    7.4500    7.4600    7.4700    7.4800    7.4900    7.5000    7.5100
    7.5200    7.5300    7.5400    7.5500    7.5600    7.5700
   </PP_R>
   <PP_RAB type="real"  size=" 758" columns="8">
    0.0100    0.0100    0.0100    0.0100    0.0100    0.0100    0.0100    0.0100
    0.0100    0.0100    0.0100    0.0100    0.0100    0.0100    0.0100    0.0100
    0.0100    0.0100    0.0100    0.0100    0.0100    0.0100    0.0100    0.0100
    0.0100    0.0100    0.0100    0.0100    0.0100    0.0100    0.0100    0.0100
    0.0100    0.0100    0.0100    0.0100    0.0100    0.0100    0.0100    0.0100
    0.0100    0.0100    0.0100    0.0100    0.0100    0.0100    0.0100    0.0100
    0.0100    0.0100    0.0100    0.0100    0.0100    0.0100    0.0100    0.0100
    0.0100    0.0100    0.0100    0.0100    0.0100    0.0100    0.0100    0.0100
    0.0100    0.0100    0.0100    0.0100    0.0100    0.0100    0.0100    0.0100
    0.0100    0.0100    0.0100    0.0100    0.0100    0.0100    0.0100    0.0100
    0.0100    0.0100    0.0100    0.0100    0.0100    0.0100    0.0100    0.0100
    0.0100    0.0100    0.0100    0.0100    0.0100    0.0100    0.0100    0.0100
    0.0100    0.0100    0.0100    0.0100    0.0100    0.0100    0.0100    0.0100
    0.0100    0.0100    0.0100    0.0100    0.0100    0.0100    0.0100    0.0100
    0.0100    0.0100    0.0100    0.0100    0.0100    0.0100    0.0100    0.0100
    0.0100    0.0100    0.0100    0.0100    0.0100    0.0100    0.0100    0.0100
    0.0100    0.0100    0.0100    0.0100    0.0100    0.0100    0.0100    0.0100
    0.0100    0.0100    0.0100    0.0100    0.0100    0.0100    0.0100    0.0100
    0.0100    0.0100    0.0100    0.0100    0.0100    0.0100    0.0100    0.0100
    0.0100    0.0100    0.0100    0.0100    0.0100    0.0100    0.0100    0.0100
    0.0100    0.0100    0.0100    0.0100    0.0100    0.0100    0.0100    0.0100
    0.0100    0.0100    0.0100    0.0100    0.0100    0.0100    0.0100    0.0100
    0.0100    0.0100    0.0100    0.0100    0.0100    0.0100    0.0100    0.0100
    0.0100    0.0100    0.0100    0.0100    0.0100    0.0100    0.0100    0.0100
    0.0100    0.0100    0.0100    0.0100    0.0100    0.0100    0.0100    0.0100
    0.0100    0.0100    0.0100    0.0100    0.0100    0.0100    0.0100    0.0100
    0.0100    0.0100    0.0100    0.0100    0.0100    0.0100    0.0100    0.0100
    0.0100    0.0100    0.0100    0.0100    0.0100    0.0100    0.0100    0.0100
    0.0100    0.0100    0.0100    0.0100    0.0100    0.0100    0.0100    0.0100
    0.0100    0.0100    0.0100    0.0100    0.0100    0.0100    0.0100    0.0100
    0.0100    0.0100    0.0100    0.0100    0.0100    0.0100    0.0100    0.0100
    0.0100    0.0100    0.0100    0.0100    0.0100    0.0100    0.0100    0.0100
    0.0100    0.0100    0.0100    0.0100    0.0100    0.0100    0.0100    0.0100
    0.0100    0.0100    0.0100    0.0100    0.0100    0.0100    0.0100    0.0100
    0.0100    0.0100    0.0100    0.0100    0.0100    0.0100    0.0100    0.0100
    0.0100    0.0100    0.0100    0.0100    0.0100    0.0100    0.0100    0.0100
    0.0100    0.0100    0.0100    0.0100    0.0100    0.0100    0.0100    0.0100
    0.0100    0.0100    0.0100    0.0100    0.0100    0.0100    0.0100    0.0100
    0.0100    0.0100    0.0100    0.0100    0.0100    0.0100    0.0100    0.0100
    0.0100    0.0100    0.0100    0.0100    0.0100    0.0100    0.0100    0.0100
    0.0100    0.0100    0.0100    0.0100    0.0100    0.0100    0.0100    0.0100
    0.0100    0.0100    0.0100    0.0100    0.0100    0.0100    0.0100    0.0100
    0.0100    0.0100    0.0100    0.0100    0.0100    0.0100    0.0100    0.0100
    0.0100    0.0100    0.0100    0.0100    0.0100    0.0100    0.0100    0.0100
    0.0100    0.0100    0.0100    0.0100    0.0100    0.0100    0.0100    0.0100
    0.0100    0.0100    0.0100    0.0100    0.0100    0.0100    0.0100    0.0100
    0.0100    0.0100    0.0100    0.0100    0.0100    0.0100    0.0100    0.0100
    0.0100    0.0100    0.0100    0.0100    0.0100    0.0100    0.0100    0.0100
    0.0100    0.0100    0.0100    0.0100    0.0100    0.0100    0.0100    0.0100
    0.0100    0.0100    0.0100    0.0100    0.0100    0.0100    0.0100    0.0100
    0.0100    0.0100    0.0100    0.0100    0.0100    0.0100    0.0100    0.0100
    0.0100    0.0100    0.0100    0.0100    0.0100    0.0100    0.0100    0.0100
    0.0100    0.0100    0.0100    0.0100    0.0100    0.0100    0.0100    0.0100
    0.0100    0.0100    0.0100    0.0100    0.0100    0.0100    0.0100    0.0100
    0.0100    0.0100    0.0100    0.0100    0.0100    0.0100    0.0100    0.0100
    0.0100    0.0100    0.0100    0.0100    0.0100    0.0100    0.0100    0.0100
    0.0100    0.0100    0.0100    0.0100    0.0100    0.0100    0.0100    0.0100
    0.0100    0.0100    0.0100    0.0100    0.0100    0.0100    0.0100    0.0100
    0.0100    0.0100    0.0100    0.0100    0.0100    0.0100    0.0100    0.0100
    0.0100    0.0100    0.0100    0.0100    0.0100    0.0100    0.0100    0.0100
    0.0100    0.0100    0.0100    0.0100    0.0100    0.0100    0.0100    0.0100
    0.0100    0.0100    0.0100    0.0100    0.0100    0.0100    0.0100    0.0100
    0.0100    0.0100    0.0100    0.0100    0.0100    0.0100    0.0100    0.0100
    0.0100    0.0100    0.0100    0.0100    0.0100    0.0100    0.0100    0.0100
    0.0100    0.0100    0.0100    0.0100    0.0100    0.0100    0.0100    0.0100
    0.0100    0.0100    0.0100    0.0100    0.0100    0.0100    0.0100    0.0100
    0.0100    0.0100    0.0100    0.0100    0.0100    0.0100    0.0100    0.0100
    0.0100    0.0100    0.0100    0.0100    0.0100    0.0100    0.0100    0.0100
    0.0100    0.0100    0.0100    0.0100    0.0100    0.0100    0.0100    0.0100
    0.0100    0.0100    0.0100    0.0100    0.0100    0.0100    0.0100    0.0100
    0.0100    0.0100    0.0100    0.0100    0.0100    0.0100    0.0100    0.0100
    0.0100    0.0100    0.0100    0.0100    0.0100    0.0100    0.0100    0.0100
    0.0100    0.0100    0.0100    0.0100    0.0100    0.0100    0.0100    0.0100
    0.0100    0.0100    0.0100    0.0100    0.0100    0.0100    0.0100    0.0100
    0.0100    0.0100    0.0100    0.0100    0.0100    0.0100    0.0100    0.0100
    0.0100    0.0100    0.0100    0.0100    0.0100    0.0100    0.0100    0.0100
    0.0100    0.0100    0.0100    0.0100    0.0100    0.0100    0.0100    0.0100
    0.0100    0.0100    0.0100    0.0100    0.0100    0.0100    0.0100    0.0100
    0.0100    0.0100    0.0100    0.0100    0.0100    0.0100    0.0100    0.0100
    0.0100    0.0100    0.0100    0.0100    0.0100    0.0100    0.0100    0.0100
    0.0100    0.0100    0.0100    0.0100    0.0100    0.0100    0.0100    0.0100
    0.0100    0.0100    0.0100    0.0100    0.0100    0.0100    0.0100    0.0100
    0.0100    0.0100    0.0100    0.0100    0.0100    0.0100    0.0100    0.0100
    0.0100    0.0100    0.0100    0.0100    0.0100    0.0100    0.0100    0.0100
    0.0100    0.0100    0.0100    0.0100    0.0100    0.0100    0.0100    0.0100
    0.0100    0.0100    0.0100    0.0100    0.0100    0.0100    0.0100    0.0100
    0.0100    0.0100    0.0100    0.0100    0.0100    0.0100    0.0100    0.0100
    0.0100    0.0100    0.0100    0.0100    0.0100    0.0100    0.0100    0.0100
    0.0100    0.0100    0.0100    0.0100    0.0100    0.0100    0.0100    0.0100
    0.0100    0.0100    0.0100    0.0100    0.0100    0.0100    0.0100    0.0100
    0.0100    0.0100    0.0100    0.0100    0.0100    0.0100    0.0100    0.0100
    0.0100    0.0100    0.0100    0.0100    0.0100    0.0100    0.0100    0.0100
    0.0100    0.0100    0.0100    0.0100    0.0100    0.0100    0.0100    0.0100
    0.0100    0.0100    0.0100    0.0100    0.0100    0.0100    0.0100    0.0100
    0.0100    0.0100    0.0100    0.0100    0.0100    0.0100
   </PP_RAB>
 </PP_MESH>
  <PP_LOCAL type="real"  size=" 758" columns="4">
   -1.7485999036E+01   -1.7490805887E+01   -1.7504238869E+01   -1.7524384992E+01
   -1.7548425036E+01   -1.7573293330E+01   -1.7596188534E+01   -1.7614909059E+01
   -1.7627986821E+01   -1.7634658614E+01   -1.7634740995E+01   -1.7628469841E+01
   -1.7616346445E+01   -1.7599011486E+01   -1.7577153033E+01   -1.7551445964E+01
   -1.7522516464E+01   -1.7490924616E+01   -1.7457158982E+01   -1.7421638427E+01
   -1.7384717841E+01   -1.7346695517E+01   -1.7307820842E+01   -1.7268301523E+01
   -1.7228309973E+01   -1.7187988758E+01   -1.7147455108E+01   -1.7106804579E+01
   -1.7066114009E+01   -1.7025443871E+01   -1.6984840153E+01   -1.6944335866E+01
   -1.6903952262E+01   -1.6863699830E+01   -1.6823579132E+01   -1.6783581530E+01
   -1.6743689821E+01   -1.6703878838E+01   -1.6664116015E+01   -1.6624361961E+01
   -1.6584571046E+01   -1.6544692021E+01   -1.6504668677E+01   -1.6464440561E+01
   -1.6423943746E+01   -1.6383111660E+01   -1.6341875970E+01   -1.6300167508E+01
   -1.6257917243E+01   -1.6215057264E+01   -1.6171521768E+01   -1.6127248027E+01
   -1.6082177313E+01   -1.6036255757E+01   -1.5989435117E+01   -1.5941673439E+01
   -1.5892935587E+01   -1.5843193646E+01   -1.5792427159E+01   -1.5740623230E+01
   -1.5687776475E+01   -1.5633888829E+01   -1.5578969228E+01   -1.5523033190E+01
   -1.5466102284E+01   -1.5408203550E+01   -1.5349368854E+01   -1.5289634219E+01
   -1.5229039151E+01   -1.5167625969E+01   -1.5105439167E+01   -1.5042524802E+01
   -1.4978929946E+01   -1.4914702175E+01   -1.4849889134E+01   -1.4784538147E+01
   -1.4718695901E+01   -1.4652408176E+01   -1.4585719637E+01   -1.4518673673E+01
   -1.4451312285E+01   -1.4383676004E+01   -1.4315803851E+01   -1.4247733322E+01
   -1.4179500398E+01   -1.4111139567E+01   -1.4042683863E+01   -1.3974164921E+01
   -1.3905613026E+01   -1.3837057175E+01   -1.3768525135E+01   -1.3700043504E+01
   -1.3631637767E+01   -1.3563332347E+01   -1.3495150655E+01   -1.3427115137E+01
   -1.3359247305E+01   -1.3291567778E+01   -1.3224096303E+01   -1.3156851781E+01
   -1.3089852282E+01   -1.3023115056E+01   -1.2956656542E+01   -1.2890492368E+01
   -1.2824637350E+01   -1.2759105491E+01   -1.2693909963E+01   -1.2629063106E+01
   -1.2564576406E+01   -1.2500460483E+01   -1.2436725068E+01   -1.2373378989E+01
   -1.2310430147E+01   -1.2247885494E+01   -1.2185751012E+01   -1.2124031696E+01
   -1.2062731527E+01   -1.2001853462E+01   -1.1941399410E+01   -1.1881370225E+01
   -1.1821765694E+01   -1.1762584535E+01   -1.1703824394E+01   -1.1645481853E+01
   -1.1587552447E+01   -1.1530030682E+01   -1.1472910063E+01   -1.1416183138E+01
   -1.1359841542E+01   -1.1303876054E+01   -1.1248276669E+01   -1.1193032669E+01
   -1.1138132715E+01   -1.1083564940E+01   -1.1029317052E+01   -1.0975376447E+01
   -1.0921730325E+01   -1.0868365807E+01   -1.0815270066E+01   -1.0762430445E+01
   -1.0709834586E+01   -1.0657470545E+01   -1.0605326913E+01   -1.0553392922E+01
   -1.0501658548E+01   -1.0450114599E+01   -1.0398752797E+01   -1.0347565841E+01
   -1.0296547464E+01   -1.0245692467E+01   -1.0194996750E+01   -1.0144457314E+01
   -1.0094072264E+01   -1.0043840788E+01   -9.9937631252E+00   -9.9438405292E+00
   -9.8940752112E+00   -9.8444702801E+00   -9.7950296730E+00   -9.7457580800E+00
   -9.6966608638E+00   -9.6477439762E+00   -9.5990138730E+00   -9.5504774282E+00
   -9.5021418487E+00   -9.4540145917E+00   -9.4061032842E+00   -9.3584156464E+00
   -9.3109594196E+00   -9.2637422993E+00   -9.2167718731E+00   -9.1700555651E+00
   -9.1236005853E+00   -9.0774138857E+00   -9.0315021214E+00   -8.9858716185E+00
   -8.9405283462E+00   -8.8954778955E+00   -8.8507254621E+00   -8.8062758335E+00
   -8.7621333817E+00   -8.7183020584E+00   -8.6747853942E+00   -8.6315865013E+00
   -8.5887080783E+00   -8.5461524178E+00   -8.5039214156E+00   -8.4620165823E+00
   -8.4204390560E+00   -8.3791896154E+00   -8.3382686956E+00   -8.2976764023E+00
   -8.2574125288E+00   -8.2174765711E+00   -8.1778677448E+00   -8.1385850010E+00
   -8.0996270421E+00   -8.0609923380E+00   -8.0226791409E+00   -7.9846855002E+00
   -7.9470092773E+00   -7.9096481584E+00   -7.8725996686E+00   -7.8358611835E+00
   -7.7994299415E+00   -7.7633030552E+00   -7.7274775216E+00   -7.6919502329E+00
   -7.6567179859E+00   -7.6217774916E+00   -7.5871253843E+00   -7.5527582306E+00
   -7.5186725386E+00   -7.4848647664E+00   -7.4513313317E+00   -7.4180686207E+00
   -7.3850729976E+00   -7.3523408146E+00   -7.3198684220E+00   -7.2876521784E+00
   -7.2556884621E+00   -7.2239736812E+00   -7.1925042857E+00   -7.1612767787E+00
   -7.1302877272E+00   -7.0995337738E+00   -7.0690116479E+00   -7.0387181755E+00
   -7.0086502895E+00   -6.9788050391E+00   -6.9491795976E+00   -6.9197712695E+00
   -6.8905774974E+00   -6.8615958652E+00   -6.8328241025E+00   -6.8042600858E+00
   -6.7759018387E+00   -6.7477475306E+00   -6.7197954737E+00   -6.6920441183E+00
   -6.6644920471E+00   -6.6371379677E+00   -6.6099807037E+00   -6.5830191852E+00
   -6.5562524374E+00   -6.5296795691E+00   -6.5032997601E+00   -6.4771122477E+00
   -6.4511163137E+00   -6.4253112696E+00   -6.3996964434E+00   -6.3742711657E+00
   -6.3490347546E+00   -6.3239865039E+00   -6.2991256689E+00   -6.2744514551E+00
   -6.2499630043E+00   -6.2256593819E+00   -6.2015395781E+00   -6.1776024833E+00
   -6.1538468861E+00   -6.1302714467E+00   -6.1068747183E+00   -6.0836551511E+00
   -6.0606110820E+00   -6.0377407665E+00   -6.0150423938E+00   -5.9925141022E+00
   -5.9701540025E+00   -5.9479601936E+00   -5.9259307968E+00   -5.9040639638E+00
   -5.8823578724E+00   -5.8608107462E+00   -5.8394208667E+00   -5.8181865427E+00
   -5.7971061177E+00   -5.7761779103E+00   -5.7554002737E+00   -5.7347715762E+00
   -5.7142902242E+00   -5.6939546462E+00   -5.6737632928E+00   -5.6537146359E+00
   -5.6338071674E+00   -5.6140394013E+00   -5.5944098719E+00   -5.5749171344E+00
   -5.5555597638E+00   -5.5363363548E+00   -5.5172455217E+00   -5.4982858976E+00
   -5.4794561345E+00   -5.4607549027E+00   -5.4421808907E+00   -5.4237328048E+00
   -5.4054093686E+00   -5.3872093230E+00   -5.3691314257E+00   -5.3511744514E+00
   -5.3333371906E+00   -5.3156184502E+00   -5.2980170529E+00   -5.2805318367E+00
   -5.2631616553E+00   -5.2459053770E+00   -5.2287618852E+00   -5.2117300777E+00
   -5.1948088666E+00   -5.1779971783E+00   -5.1612939527E+00   -5.1446981436E+00
   -5.1282087182E+00   -5.1118246568E+00   -5.0955449526E+00   -5.0793686119E+00
   -5.0632946533E+00   -5.0473221079E+00   -5.0314500189E+00   -5.0156774417E+00
   -5.0000034432E+00   -4.9844271021E+00   -4.9689475087E+00   -4.9535637643E+00
   -4.9382749814E+00   -4.9230802835E+00   -4.9079788047E+00   -4.8929696898E+00
   -4.8780520940E+00   -4.8632251827E+00   -4.8484881315E+00   -4.8338401260E+00
   -4.8192803616E+00   -4.8048080434E+00   -4.7904223857E+00   -4.7761226127E+00
   -4.7619079574E+00   -4.7477776622E+00   -4.7337309781E+00   -4.7197671654E+00
   -4.7058854928E+00   -4.6920852377E+00   -4.6783656858E+00   -4.6647261313E+00
   -4.6511658766E+00   -4.6376842321E+00   -4.6242805161E+00   -4.6109540550E+00
   -4.5977041827E+00   -4.5845302409E+00   -4.5714315788E+00   -4.5584075529E+00
   -4.5454575271E+00   -4.5325808726E+00   -4.5197769675E+00   -4.5070451971E+00
   -4.4943849534E+00   -4.4817956355E+00   -4.4692766489E+00   -4.4568274059E+00
   -4.4444473254E+00   -4.4321358325E+00   -4.4198923589E+00   -4.4077163424E+00
   -4.3956072270E+00   -4.3835644629E+00   -4.3715875063E+00   -4.3596758191E+00
   -4.3478288693E+00   -4.3360461306E+00   -4.3243270823E+00   -4.3126712094E+00
   -4.3010780025E+00   -4.2895469574E+00   -4.2780775757E+00   -4.2666693640E+00
   -4.2553218342E+00   -4.2440345034E+00   -4.2328068939E+00   -4.2216385330E+00
   -4.2105289529E+00   -4.1994776907E+00   -4.1884842885E+00   -4.1775482931E+00
   -4.1666692559E+00   -4.1558467331E+00   -4.1450802855E+00   -4.1343694785E+00
   -4.1237138817E+00   -4.1131130695E+00   -4.1025666204E+00   -4.0920741172E+00
   -4.0816351472E+00   -4.0712493016E+00   -4.0609161761E+00   -4.0506353701E+00
   -4.0404064873E+00   -4.0302291354E+00   -4.0201029259E+00   -4.0100274744E+00
   -4.0000024000E+00   -3.9900273260E+00   -3.9801018791E+00   -3.9702256901E+00
   -3.9603983930E+00   -3.9506196257E+00   -3.9408890297E+00   -3.9312062498E+00
   -3.9215709345E+00   -3.9119827356E+00   -3.9024413084E+00   -3.8929463115E+00
   -3.8834974067E+00   -3.8740942594E+00   -3.8647365378E+00   -3.8554239136E+00
   -3.8461560617E+00   -3.8369326598E+00   -3.8277533890E+00   -3.8186179334E+00
   -3.8095259799E+00   -3.8004772185E+00   -3.7914713422E+00   -3.7825080469E+00
   -3.7735870313E+00   -3.7647079968E+00   -3.7558706480E+00   -3.7470746919E+00
   -3.7383198383E+00   -3.7296057999E+00   -3.7209322919E+00   -3.7122990322E+00
   -3.7037057412E+00   -3.6951521421E+00   -3.6866379605E+00   -3.6781629246E+00
   -3.6697267649E+00   -3.6613292147E+00   -3.6529700094E+00   -3.6446488870E+00
   -3.6363655879E+00   -3.6281198548E+00   -3.6199114327E+00   -3.6117400689E+00
   -3.6036055131E+00   -3.5955075170E+00   -3.5874458348E+00   -3.5794202228E+00
   -3.5714304393E+00   -3.5634762452E+00   -3.5555574029E+00   -3.5476736775E+00
   -3.5398248359E+00   -3.5320106469E+00   -3.5242308817E+00   -3.5164853132E+00
   -3.5087737166E+00   -3.5010958687E+00   -3.4934515485E+00   -3.4858405369E+00
   -3.4782626167E+00   -3.4707175725E+00   -3.4632051908E+00   -3.4557252600E+00
   -3.4482775702E+00   -3.4408619136E+00   -3.4334780838E+00   -3.4261258764E+00
   -3.4188050887E+00   -3.4115155197E+00   -3.4042569702E+00   -3.3970292425E+00
   -3.3898321408E+00   -3.3826654708E+00   -3.3755290400E+00   -3.3684226572E+00
   -3.3613461333E+00   -3.3542992803E+00   -3.3472819120E+00   -3.3402938438E+00
   -3.3333348926E+00   -3.3264048768E+00   -3.3195036162E+00   -3.3126309322E+00
   -3.3057866478E+00   -3.2989705872E+00   -3.2921825763E+00   -3.2854224423E+00
   -3.2786900137E+00   -3.2719851206E+00   -3.2653075944E+00   -3.2586572680E+00
   -3.2520339754E+00   -3.2454375522E+00   -3.2388678351E+00   -3.2323246624E+00
   -3.2258078734E+00   -3.2193173089E+00   -3.2128528110E+00   -3.2064142229E+00
   -3.2000013892E+00   -3.1936141556E+00   -3.1872523692E+00   -3.1809158782E+00
   -3.1746045320E+00   -3.1683181812E+00   -3.1620566777E+00   -3.1558198744E+00
   -3.1496076254E+00   -3.1434197861E+00   -3.1372562129E+00   -3.1311167632E+00
   -3.1250012958E+00   -3.1189096704E+00   -3.1128417478E+00   -3.1067973900E+00
   -3.1007764599E+00   -3.0947788217E+00   -3.0888043403E+00   -3.0828528821E+00
   -3.0769243140E+00   -3.0710185045E+00   -3.0651353225E+00   -3.0592746384E+00
   -3.0534363233E+00   -3.0476202495E+00   -3.0418262900E+00   -3.0360543190E+00
   -3.0303042115E+00   -3.0245758436E+00   -3.0188690922E+00   -3.0131838352E+00
   -3.0075199513E+00   -3.0018773203E+00   -2.9962558228E+00   -2.9906553402E+00
   -2.9850757550E+00   -2.9795169504E+00   -2.9739788105E+00   -2.9684612203E+00
   -2.9629640656E+00   -2.9574872331E+00   -2.9520306104E+00   -2.9465940858E+00
   -2.9411775484E+00   -2.9357808882E+00   -2.9304039960E+00   -2.9250467634E+00
   -2.9197090828E+00   -2.9143908473E+00   -2.9090919509E+00   -2.9038122882E+00
   -2.8985517547E+00   -2.8933102468E+00   -2.8880876612E+00   -2.8828838958E+00
   -2.8776988490E+00   -2.8725324200E+00   -2.8673845086E+00   -2.8622550156E+00
   -2.8571438422E+00   -2.8520508905E+00   -2.8469760632E+00   -2.8419192637E+00
   -2.8368803961E+00   -2.8318593653E+00   -2.8268560767E+00   -2.8218704363E+00
   -2.8169023511E+00   -2.8119517283E+00   -2.8070184762E+00   -2.8021025035E+00
   -2.7972037195E+00   -2.7923220343E+00   -2.7874573584E+00   -2.7826096032E+00
   -2.7777786805E+00   -2.7729645027E+00   -2.7681669831E+00   -2.7633860352E+00
   -2.7586215733E+00   -2.7538735124E+00   -2.7491417678E+00   -2.7444262557E+00
   -2.7397268926E+00   -2.7350435958E+00   -2.7303762829E+00   -2.7257248723E+00
   -2.7210892828E+00   -2.7164694339E+00   -2.7118652456E+00   -2.7072766382E+00
   -2.7027035330E+00   -2.6981458514E+00   -2.6936035155E+00   -2.6890764480E+00
   -2.6845645721E+00   -2.6800678113E+00   -2.6755860899E+00   -2.6711193325E+00
   -2.6666674644E+00   -2.6622304111E+00   -2.6578080989E+00   -2.6534004544E+00