<UPF version="2.0.1">
  <PP_INFO>

 This pseudopotential file has been produced using the code
 ONCVPSP  (Optimized Norm-Conservinng Vanderbilt PSeudopotential)
 scalar-relativistic version 3.3.0 08/16/2017 by D. R. Hamann
 The code is available through a link at URL www.mat-simresearch.com.
 Documentation with the package provides a full discription of the
 input data below.


 While it is not required under the terms of the GNU GPL, it is
 suggested that you cite D. R. Hamann, Phys. Rev. B 88, 085117 (2013)
 in any publication using these pseudopotentials.

    <PP_INPUTFILE>
# ATOM AND REFERENCE CONFIGURATION
# atsym  z   nc   nv     iexc    psfile
  Ne 10.00    1    2       4      upf
#
#   n    l    f        energy (Ha)
    1    0    2.00
    2    0    2.00
    2    1    6.00
#
# PSEUDOPOTENTIAL AND OPTIMIZATION
# lmax
    1
#
#   l,   rc,      ep,       ncon, nbas, qcut
    0   2.61642  -1.33786    5    8   7.96858
    1   2.63783  -0.49002    5    8   6.60628
#
# LOCAL POTENTIAL
# lloc, lpopt,  rc(5),   dvloc0
    4    5   2.61477      0.00000
#
# VANDERBILT-KLEINMAN-BYLANDER PROJECTORs
# l, nproj, debl
    0    2   1.54861
    1    2   1.11000
#
# MODEL CORE CHARGE
# icmod, fcfact, rcfact
    0   0.00000   0.00000
#
# LOG DERIVATIVE ANALYSIS
# epsh1, epsh2, depsh
   -5.00    3.00    0.02
#
# OUTPUT GRID
# rlmax, drl
    6.00    0.01
#
# TEST CONFIGURATIONS
# ncnf
    0
# nvcnf
#   n    l    f
    </PP_INPUTFILE>
  </PP_INFO>
  <!--                               -->
  <!-- END OF HUMAN READABLE SECTION -->
  <!--                               -->
    <PP_HEADER
       generated="Generated using ONCVPSP code by D. R. Hamann"
       author="anonymous"
       date="170818"
       comment=""
       element="Ne"
       pseudo_type="NC"
       relativistic="scalar"
       is_ultrasoft="F"
       is_paw="F"
       is_coulomb="F"
       has_so="F"
       has_wfc="F"
       has_gipaw="F"
       core_correction="F"
       functional="PBE"
       z_valence="    8.00"
       total_psenergy="  -6.10377610624E+01"
       rho_cutoff="   7.57000000000E+00"
       l_max="1"
       l_local="-1"
       mesh_size="   758"
       number_of_wfc="2"
       number_of_proj="4"/>
 <PP_MESH>
   <PP_R type="real"  size=" 758" columns="8">
    0.0000    0.0100    0.0200    0.0300    0.0400    0.0500    0.0600    0.0700
    0.0800    0.0900    0.1000    0.1100    0.1200    0.1300    0.1400    0.1500
    0.1600    0.1700    0.1800    0.1900    0.2000    0.2100    0.2200    0.2300
    0.2400    0.2500    0.2600    0.2700    0.2800    0.2900    0.3000    0.3100
    0.3200    0.3300    0.3400    0.3500    0.3600    0.3700    0.3800    0.3900
    0.4000    0.4100    0.4200    0.4300    0.4400    0.4500    0.4600    0.4700
    0.4800    0.4900    0.5000    0.5100    0.5200    0.5300    0.5400    0.5500
    0.5600    0.5700    0.5800    0.5900    0.6000    0.6100    0.6200    0.6300
    0.6400    0.6500    0.6600    0.6700    0.6800    0.6900    0.7000    0.7100
    0.7200    0.7300    0.7400    0.7500    0.7600    0.7700    0.7800    0.7900
    0.8000    0.8100    0.8200    0.8300    0.8400    0.8500    0.8600    0.8700
    0.8800    0.8900    0.9000    0.9100    0.9200    0.9300    0.9400    0.9500
    0.9600    0.9700    0.9800    0.9900    1.0000    1.0100    1.0200    1.0300
    1.0400    1.0500    1.0600    1.0700    1.0800    1.0900    1.1000    1.1100
    1.1200    1.1300    1.1400    1.1500    1.1600    1.1700    1.1800    1.1900
    1.2000    1.2100    1.2200    1.2300    1.2400    1.2500    1.2600    1.2700
    1.2800    1.2900    1.3000    1.3100    1.3200    1.3300    1.3400    1.3500
    1.3600    1.3700    1.3800    1.3900    1.4000    1.4100    1.4200    1.4300
    1.4400    1.4500    1.4600    1.4700    1.4800    1.4900    1.5000    1.5100
    1.5200    1.5300    1.5400    1.5500    1.5600    1.5700    1.5800    1.5900
    1.6000    1.6100    1.6200    1.6300    1.6400    1.6500    1.6600    1.6700
    1.6800    1.6900    1.7000    1.7100    1.7200    1.7300    1.7400    1.7500
    1.7600    1.7700    1.7800    1.7900    1.8000    1.8100    1.8200    1.8300
    1.8400    1.8500    1.8600    1.8700    1.8800    1.8900    1.9000    1.9100
    1.9200    1.9300    1.9400    1.9500    1.9600    1.9700    1.9800    1.9900
    2.0000    2.0100    2.0200    2.0300    2.0400    2.0500    2.0600    2.0700
    2.0800    2.0900    2.1000    2.1100    2.1200    2.1300    2.1400    2.1500
    2.1600    2.1700    2.1800    2.1900    2.2000    2.2100    2.2200    2.2300
    2.2400    2.2500    2.2600    2.2700    2.2800    2.2900    2.3000    2.3100
    2.3200    2.3300    2.3400    2.3500    2.3600    2.3700    2.3800    2.3900
    2.4000    2.4100    2.4200    2.4300    2.4400    2.4500    2.4600    2.4700
    2.4800    2.4900    2.5000    2.5100    2.5200    2.5300    2.5400    2.5500
    2.5600    2.5700    2.5800    2.5900    2.6000    2.6100    2.6200    2.6300
    2.6400    2.6500    2.6600    2.6700    2.6800    2.6900    2.7000    2.7100
    2.7200    2.7300    2.7400    2.7500    2.7600    2.7700    2.7800    2.7900
    2.8000    2.8100    2.8200    2.8300    2.8400    2.8500    2.8600    2.8700
    2.8800    2.8900    2.9000    2.9100    2.9200    2.9300    2.9400    2.9500
    2.9600    2.9700    2.9800    2.9900    3.0000    3.0100    3.0200    3.0300
    3.0400    3.0500    3.0600    3.0700    3.0800    3.0900    3.1000    3.1100
    3.1200    3.1300    3.1400    3.1500    3.1600    3.1700    3.1800    3.1900
    3.2000    3.2100    3.2200    3.2300    3.2400    3.2500    3.2600    3.2700
    3.2800    3.2900    3.3000    3.3100    3.3200    3.3300    3.3400    3.3500
    3.3600    3.3700    3.3800    3.3900    3.4000    3.4100    3.4200    3.4300
    3.4400    3.4500    3.4600    3.4700    3.4800    3.4900    3.5000    3.5100
    3.5200    3.5300    3.5400    3.5500    3.5600    3.5700    3.5800    3.5900
    3.6000    3.6100    3.6200    3.6300    3.6400    3.6500    3.6600    3.6700
    3.6800    3.6900    3.7000    3.7100    3.7200    3.7300    3.7400    3.7500
    3.7600    3.7700    3.7800    3.7900    3.8000    3.8100    3.8200    3.8300
    3.8400    3.8500    3.8600    3.8700    3.8800    3.8900    3.9000    3.9100
    3.9200    3.9300    3.9400    3.9500    3.9600    3.9700    3.9800    3.9900
    4.0000    4.0100    4.0200    4.0300    4.0400    4.0500    4.0600    4.0700
    4.0800    4.0900    4.1000    4.1100    4.1200    4.1300    4.1400    4.1500
    4.1600    4.1700    4.1800    4.1900    4.2000    4.2100    4.2200    4.2300
    4.2400    4.2500    4.2600    4.2700    4.2800    4.2900    4.3000    4.3100
    4.3200    4.3300    4.3400    4.3500    4.3600    4.3700    4.3800    4.3900
    4.4000    4.4100    4.4200    4.4300    4.4400    4.4500    4.4600    4.4700
    4.4800    4.4900    4.5000    4.5100    4.5200    4.5300    4.5400    4.5500
    4.5600    4.5700    4.5800    4.5900    4.6000    4.6100    4.6200    4.6300
    4.6400    4.6500    4.6600    4.6700    4.6800    4.6900    4.7000    4.7100
    4.7200    4.7300    4.7400    4.7500    4.7600    4.7700    4.7800    4.7900
    4.8000    4.8100    4.8200    4.8300    4.8400    4.8500    4.8600    4.8700
    4.8800    4.8900    4.9000    4.9100    4.9200    4.9300    4.9400    4.9500
    4.9600    4.9700    4.9800    4.9900    5.0000    5.0100    5.0200    5.0300
    5.0400    5.0500    5.0600    5.0700    5.0800    5.0900    5.1000    5.1100
    5.1200    5.1300    5.1400    5.1500    5.1600    5.1700    5.1800    5.1900
    5.2000    5.2100    5.2200    5.2300    5.2400    5.2500    5.2600    5.2700
    5.2800    5.2900    5.3000    5.3100    5.3200    5.3300    5.3400    5.3500
    5.3600    5.3700    5.3800    5.3900    5.4000    5.4100    5.4200    5.4300
    5.4400    5.4500    5.4600    5.4700    5.4800    5.4900    5.5000    5.5100
    5.5200    5.5300    5.5400    5.5500    5.5600    5.5700    5.5800    5.5900
    5.6000    5.6100    5.6200    5.6300    5.6400    5.6500    5.6600    5.6700
    5.6800    5.6900    5.7000    5.7100    5.7200    5.7300    5.7400    5.7500
    5.7600    5.7700    5.7800    5.7900    5.8000    5.8100    5.8200    5.8300
    5.8400    5.8500    5.8600    5.8700    5.8800    5.8900    5.9000    5.9100
    5.9200    5.9300    5.9400    5.9500    5.9600    5.9700    5.9800    5.9900
    6.0000    6.0100    6.0200    6.0300    6.0400    6.0500    6.0600    6.0700
    6.0800    6.0900    6.1000    6.1100    6.1200    6.1300    6.1400    6.1500
    6.1600    6.1700    6.1800    6.1900    6.2000    6.2100    6.2200    6.2300
    6.2400    6.2500    6.2600    6.2700    6.2800    6.2900    6.3000    6.3100
    6.3200    6.3300    6.3400    6.3500    6.3600    6.3700    6.3800    6.3900
    6.4000    6.4100    6.4200    6.4300    6.4400    6.4500    6.4600    6.4700
    6.4800    6.4900    6.5000    6.5100    6.5200    6.5300    6.5400    6.5500
    6.5600    6.5700    6.5800    6.5900    6.6000    6.6100    6.6200    6.6300
    6.6400    6.6500    6.6600    6.6700    6.6800    6.6900    6.7000    6.7100
    6.7200    6.7300    6.7400    6.7500    6.7600    6.7700    6.7800    6.7900
    6.8000    6.8100    6.8200    6.8300    6.8400    6.8500    6.8600    6.8700
    6.8800    6.8900    6.9000    6.9100    6.9200    6.9300    6.9400    6.9500
    6.9600    6.9700    6.9800    6.9900    7.0000    7.0100    7.0200    7.0300
    7.0400    7.0500    7.0600    7.0700    7.0800    7.0900    7.1000    7.1100
    7.1200    7.1300    7.1400    7.1500    7.1600    7.1700    7.1800    7.1900
    7.2000    7.2100    7.2200    7.2300    7.2400    7.2500    7.2600    7.2700
    7.2800    7.2900    7.3000    7.3100    7.3200    7.3300    7.3400    7.3500
    7.3600    7.3700    7.3800    7.3900    7.4000    7.4100    7.4200    7.4300
    7.4400    7.4500    7.4600    7.4700    7.4800    7.4900    7.5000    7.5100
    7.5200    7.5300    7.5400    7.5500    7.5600    7.5700
   </PP_R>
   <PP_RAB type="real"  size=" 758" columns="8">
    0.0100    0.0100    0.0100    0.0100    0.0100    0.0100    0.0100    0.0100
    0.0100    0.0100    0.0100    0.0100    0.0100    0.0100    0.0100    0.0100
    0.0100    0.0100    0.0100    0.0100    0.0100    0.0100    0.0100    0.0100
    0.0100    0.0100    0.0100    0.0100    0.0100    0.0100    0.0100    0.0100
    0.0100    0.0100    0.0100    0.0100    0.0100    0.0100    0.0100    0.0100
    0.0100    0.0100    0.0100    0.0100    0.0100    0.0100    0.0100    0.0100
    0.0100    0.0100    0.0100    0.0100    0.0100    0.0100    0.0100    0.0100
    0.0100    0.0100    0.0100    0.0100    0.0100    0.0100    0.0100    0.0100
    0.0100    0.0100    0.0100    0.0100    0.0100    0.0100    0.0100    0.0100
    0.0100    0.0100    0.0100    0.0100    0.0100    0.0100    0.0100    0.0100
    0.0100    0.0100    0.0100    0.0100    0.0100    0.0100    0.0100    0.0100
    0.0100    0.0100    0.0100    0.0100    0.0100    0.0100    0.0100    0.0100
    0.0100    0.0100    0.0100    0.0100    0.0100    0.0100    0.0100    0.0100
    0.0100    0.0100    0.0100    0.0100    0.0100    0.0100    0.0100    0.0100
    0.0100    0.0100    0.0100    0.0100    0.0100    0.0100    0.0100    0.0100
    0.0100    0.0100    0.0100    0.0100    0.0100    0.0100    0.0100    0.0100
    0.0100    0.0100    0.0100    0.0100    0.0100    0.0100    0.0100    0.0100
    0.0100    0.0100    0.0100    0.0100    0.0100    0.0100    0.0100    0.0100
    0.0100    0.0100    0.0100    0.0100    0.0100    0.0100    0.0100    0.0100
    0.0100    0.0100    0.0100    0.0100    0.0100    0.0100    0.0100    0.0100
    0.0100    0.0100    0.0100    0.0100    0.0100    0.0100    0.0100    0.0100
    0.0100    0.0100    0.0100    0.0100    0.0100    0.0100    0.0100    0.0100
    0.0100    0.0100    0.0100    0.0100    0.0100    0.0100    0.0100    0.0100
    0.0100    0.0100    0.0100    0.0100    0.0100    0.0100    0.0100    0.0100
    0.0100    0.0100    0.0100    0.0100    0.0100    0.0100    0.0100    0.0100
    0.0100    0.0100    0.0100    0.0100    0.0100    0.0100    0.0100    0.0100
    0.0100    0.0100    0.0100    0.0100    0.0100    0.0100    0.0100    0.0100
    0.0100    0.0100    0.0100    0.0100    0.0100    0.0100    0.0100    0.0100
    0.0100    0.0100    0.0100    0.0100    0.0100    0.0100    0.0100    0.0100
    0.0100    0.0100    0.0100    0.0100    0.0100    0.0100    0.0100    0.0100
    0.0100    0.0100    0.0100    0.0100    0.0100    0.0100    0.0100    0.0100
    0.0100    0.0100    0.0100    0.0100    0.0100    0.0100    0.0100    0.0100
    0.0100    0.0100    0.0100    0.0100    0.0100    0.0100    0.0100    0.0100
    0.0100    0.0100    0.0100    0.0100    0.0100    0.0100    0.0100    0.0100
    0.0100    0.0100    0.0100    0.0100    0.0100    0.0100    0.0100    0.0100
    0.0100    0.0100    0.0100    0.0100    0.0100    0.0100    0.0100    0.0100
    0.0100    0.0100    0.0100    0.0100    0.0100    0.0100    0.0100    0.0100
    0.0100    0.0100    0.0100    0.0100    0.0100    0.0100    0.0100    0.0100
    0.0100    0.0100    0.0100    0.0100    0.0100    0.0100    0.0100    0.0100
    0.0100    0.0100    0.0100    0.0100    0.0100    0.0100    0.0100    0.0100
    0.0100    0.0100    0.0100    0.0100    0.0100    0.0100    0.0100    0.0100
    0.0100    0.0100    0.0100    0.0100    0.0100    0.0100    0.0100    0.0100
    0.0100    0.0100    0.0100    0.0100    0.0100    0.0100    0.0100    0.0100
    0.0100    0.0100    0.0100    0.0100    0.0100    0.0100    0.0100    0.0100
    0.0100    0.0100    0.0100    0.0100    0.0100    0.0100    0.0100    0.0100
    0.0100    0.0100    0.0100    0.0100    0.0100    0.0100    0.0100    0.0100
    0.0100    0.0100    0.0100    0.0100    0.0100    0.0100    0.0100    0.0100
    0.0100    0.0100    0.0100    0.0100    0.0100    0.0100    0.0100    0.0100
    0.0100    0.0100    0.0100    0.0100    0.0100    0.0100    0.0100    0.0100
    0.0100    0.0100    0.0100    0.0100    0.0100    0.0100    0.0100    0.0100
    0.0100    0.0100    0.0100    0.0100    0.0100    0.0100    0.0100    0.0100
    0.0100    0.0100    0.0100    0.0100    0.0100    0.0100    0.0100    0.0100
    0.0100    0.0100    0.0100    0.0100    0.0100    0.0100    0.0100    0.0100
    0.0100    0.0100    0.0100    0.0100    0.0100    0.0100    0.0100    0.0100
    0.0100    0.0100    0.0100    0.0100    0.0100    0.0100    0.0100    0.0100
    0.0100    0.0100    0.0100    0.0100    0.0100    0.0100    0.0100    0.0100
    0.0100    0.0100    0.0100    0.0100    0.0100    0.0100    0.0100    0.0100
    0.0100    0.0100    0.0100    0.0100    0.0100    0.0100    0.0100    0.0100
    0.0100    0.0100    0.0100    0.0100    0.0100    0.0100    0.0100    0.0100
    0.0100    0.0100    0.0100    0.0100    0.0100    0.0100    0.0100    0.0100
    0.0100    0.0100    0.0100    0.0100    0.0100    0.0100    0.0100    0.0100
    0.0100    0.0100    0.0100    0.0100    0.0100    0.0100    0.0100    0.0100
    0.0100    0.0100    0.0100    0.0100    0.0100    0.0100    0.0100    0.0100
    0.0100    0.0100    0.0100    0.0100    0.0100    0.0100    0.0100    0.0100
    0.0100    0.0100    0.0100    0.0100    0.0100    0.0100    0.0100    0.0100
    0.0100    0.0100    0.0100    0.0100    0.0100    0.0100    0.0100    0.0100
    0.0100    0.0100    0.0100    0.0100    0.0100    0.0100    0.0100    0.0100
    0.0100    0.0100    0.0100    0.0100    0.0100    0.0100    0.0100    0.0100
    0.0100    0.0100    0.0100    0.0100    0.0100    0.0100    0.0100    0.0100
    0.0100    0.0100    0.0100    0.0100    0.0100    0.0100    0.0100    0.0100
    0.0100    0.0100    0.0100    0.0100    0.0100    0.0100    0.0100    0.0100
    0.0100    0.0100    0.0100    0.0100    0.0100    0.0100    0.0100    0.0100
    0.0100    0.0100    0.0100    0.0100    0.0100    0.0100    0.0100    0.0100
    0.0100    0.0100    0.0100    0.0100    0.0100    0.0100    0.0100    0.0100
    0.0100    0.0100    0.0100    0.0100    0.0100    0.0100    0.0100    0.0100
    0.0100    0.0100    0.0100    0.0100    0.0100    0.0100    0.0100    0.0100
    0.0100    0.0100    0.0100    0.0100    0.0100    0.0100    0.0100    0.0100
    0.0100    0.0100    0.0100    0.0100    0.0100    0.0100    0.0100    0.0100
    0.0100    0.0100    0.0100    0.0100    0.0100    0.0100    0.0100    0.0100
    0.0100    0.0100    0.0100    0.0100    0.0100    0.0100    0.0100    0.0100
    0.0100    0.0100    0.0100    0.0100    0.0100    0.0100    0.0100    0.0100
    0.0100    0.0100    0.0100    0.0100    0.0100    0.0100    0.0100    0.0100
    0.0100    0.0100    0.0100    0.0100    0.0100    0.0100    0.0100    0.0100
    0.0100    0.0100    0.0100    0.0100    0.0100    0.0100    0.0100    0.0100
    0.0100    0.0100    0.0100    0.0100    0.0100    0.0100    0.0100    0.0100
    0.0100    0.0100    0.0100    0.0100    0.0100    0.0100    0.0100    0.0100
    0.0100    0.0100    0.0100    0.0100    0.0100    0.0100    0.0100    0.0100
    0.0100    0.0100    0.0100    0.0100    0.0100    0.0100    0.0100    0.0100
    0.0100    0.0100    0.0100    0.0100    0.0100    0.0100    0.0100    0.0100
    0.0100    0.0100    0.0100    0.0100    0.0100    0.0100    0.0100    0.0100
    0.0100    0.0100    0.0100    0.0100    0.0100    0.0100    0.0100    0.0100
    0.0100    0.0100    0.0100    0.0100    0.0100    0.0100    0.0100    0.0100
    0.0100    0.0100    0.0100    0.0100    0.0100    0.0100    0.0100    0.0100
    0.0100    0.0100    0.0100    0.0100    0.0100    0.0100    0.0100    0.0100
    0.0100    0.0100    0.0100    0.0100    0.0100    0.0100
   </PP_RAB>
 </PP_MESH>
  <PP_LOCAL type="real"  size=" 758" columns="4">
   -1.7485992479E+01   -1.7490796452E+01   -1.7504221662E+01   -1.7524356471E+01
   -1.7548383595E+01   -1.7573239276E+01   -1.7596123672E+01   -1.7614836108E+01
   -1.7627908841E+01   -1.7634578564E+01   -1.7634661454E+01   -1.7628392889E+01
   -1.7616273639E+01   -1.7598943911E+01   -1.7577091374E+01   -1.7551390596E+01
   -1.7522467523E+01   -1.7490882072E+01   -1.7457122687E+01   -1.7421608155E+01
   -1.7384693317E+01   -1.7346676437E+01   -1.7307806889E+01   -1.7268292370E+01
   -1.7228305294E+01   -1.7187988232E+01   -1.7147458415E+01   -1.7106811406E+01
   -1.7066124051E+01   -1.7025456830E+01   -1.6984855738E+01   -1.6944353798E+01
   -1.6903972267E+01   -1.6863721647E+01   -1.6823602511E+01   -1.6783606232E+01
   -1.6743715621E+01   -1.6703905525E+01   -1.6664143392E+01   -1.6624389849E+01
   -1.6584599282E+01   -1.6544720460E+01   -1.6504697193E+01   -1.6464469048E+01
   -1.6423972116E+01   -1.6383139846E+01   -1.6341903923E+01   -1.6300195199E+01
   -1.6257944662E+01   -1.6215084416E+01   -1.6171548675E+01   -1.6127274723E+01
   -1.6082203846E+01   -1.6036282184E+01   -1.5989461500E+01   -1.5941699847E+01
   -1.5892962091E+01   -1.5843220315E+01   -1.5792454062E+01   -1.5740650430E+01
   -1.5687804030E+01   -1.5633916786E+01   -1.5578997629E+01   -1.5523062063E+01
   -1.5466131649E+01   -1.5408233415E+01   -1.5349399215E+01   -1.5289665062E+01
   -1.5229070452E+01   -1.5167657695E+01   -1.5105471275E+01   -1.5042557242E+01
   -1.4978962661E+01   -1.4914735104E+01   -1.4849922210E+01   -1.4784571302E+01
   -1.4718729061E+01   -1.4652441268E+01   -1.4585752586E+01   -1.4518706408E+01
   -1.4451344731E+01   -1.4383708091E+01   -1.4315835509E+01   -1.4247764487E+01
   -1.4179531005E+01   -1.4111169555E+01   -1.4042713176E+01   -1.3974193506E+01
   -1.3905640834E+01   -1.3837084160E+01   -1.3768551257E+01   -1.3700068725E+01
   -1.3631662052E+01   -1.3563355667E+01   -1.3495172985E+01   -1.3427136454E+01
   -1.3359267592E+01   -1.3291587021E+01   -1.3224114491E+01   -1.3156868908E+01
   -1.3089868346E+01   -1.3023130057E+01   -1.2956670484E+01   -1.2890505260E+01
   -1.2824649205E+01   -1.2759116323E+01   -1.2693919792E+01   -1.2629071955E+01
   -1.2564584300E+01   -1.2500467452E+01   -1.2436731146E+01   -1.2373384213E+01
   -1.2310434555E+01   -1.2247889130E+01   -1.2185753923E+01   -1.2124033930E+01
   -1.2062733138E+01   -1.2001854504E+01   -1.1941399940E+01   -1.1881370304E+01
   -1.1821765384E+01   -1.1762583899E+01   -1.1703823498E+01   -1.1645480764E+01
   -1.1587551232E+01   -1.1530029409E+01   -1.1472908800E+01   -1.1416181952E+01
   -1.1359840500E+01   -1.1303875221E+01   -1.1248276107E+01   -1.1193032440E+01
   -1.1138132876E+01   -1.1083565545E+01   -1.1029318151E+01   -1.0975378087E+01
   -1.0921732545E+01   -1.0868368643E+01   -1.0815273549E+01   -1.0762434599E+01
   -1.0709839427E+01   -1.0657476087E+01   -1.0605333160E+01   -1.0553399874E+01
   -1.0501666197E+01   -1.0450122933E+01   -1.0398761796E+01   -1.0347575480E+01
   -1.0296557714E+01   -1.0245703294E+01   -1.0195008114E+01   -1.0144469174E+01
   -1.0094084573E+01   -1.0043853496E+01   -9.9937761833E+00   -9.9438538848E+00
   -9.8940888111E+00   -9.8444840706E+00   -9.7950436007E+00   -9.7457720921E+00
   -9.6966749087E+00   -9.6477580038E+00   -9.5990278352E+00   -9.5504912791E+00
   -9.5021555454E+00   -9.4540280939E+00   -9.4061165547E+00   -9.3584286514E+00
   -9.3109721286E+00   -9.2637546854E+00   -9.2167839128E+00   -9.1700672385E+00
   -9.1236118760E+00   -9.0774247806E+00   -9.0315126110E+00   -8.9858816962E+00
   -8.9405380087E+00   -8.8954871426E+00   -8.8507342960E+00   -8.8062842594E+00
   -8.7621414072E+00   -8.7183096931E+00   -8.6747926501E+00   -8.6315933923E+00
   -8.5887146198E+00   -8.5461586268E+00   -8.5039273106E+00   -8.4620221830E+00
   -8.4204443828E+00   -8.3791946898E+00   -8.3382735396E+00   -8.2976810385E+00
   -8.2574169801E+00   -8.2174808606E+00   -8.1778718957E+00   -8.1385890363E+00
   -8.0996309848E+00   -8.0609962104E+00   -8.0226829651E+00   -7.9846892979E+00
   -7.9470130691E+00   -7.9096519646E+00   -7.8726035082E+00   -7.8358650749E+00
   -7.7994339020E+00   -7.7633071010E+00   -7.7274816680E+00   -7.6919544938E+00
   -7.6567223741E+00   -7.6217820186E+00   -7.5871300605E+00   -7.5527630651E+00
   -7.5186775391E+00   -7.4848699395E+00   -7.4513366826E+00   -7.4180741534E+00
   -7.3850787148E+00   -7.3523467177E+00   -7.3198745113E+00   -7.2876584530E+00
   -7.2556949199E+00   -7.2239803191E+00   -7.1925110995E+00   -7.1612837631E+00
   -7.1302948761E+00   -7.0995410802E+00   -7.0690191038E+00   -7.0387257723E+00
   -7.0086580180E+00   -6.9788128894E+00   -6.9491875593E+00   -6.9197793319E+00
   -6.8905856493E+00   -6.8616040953E+00   -6.8328323992E+00   -6.8042684377E+00
   -6.7759102341E+00   -6.7477559582E+00   -6.7198039223E+00   -6.6920525770E+00
   -6.6645005054E+00   -6.6371464156E+00   -6.6099891315E+00   -6.5830275839E+00
   -6.5562607987E+00   -6.5296878853E+00   -6.5033080240E+00   -6.4771204531E+00
   -6.4511244549E+00   -6.4253193417E+00   -6.3997044424E+00   -6.3742790881E+00
   -6.3490425977E+00   -6.3239942657E+00   -6.2991333480E+00   -6.2744590507E+00
   -6.2499705163E+00   -6.2256668106E+00   -6.2015469243E+00   -6.1776097480E+00
   -6.1538540710E+00   -6.1302785536E+00   -6.1068817492E+00   -6.0836621082E+00
   -6.0606179677E+00   -6.0377475830E+00   -6.0150491435E+00   -5.9925207873E+00
   -5.9701606252E+00   -5.9479667559E+00   -5.9259373007E+00   -5.9040704113E+00
   -5.8823642653E+00   -5.8608170864E+00   -5.8394271559E+00   -5.8181927828E+00
   -5.7971123103E+00   -5.7761840571E+00   -5.7554063763E+00   -5.7347776360E+00
   -5.7142962428E+00   -5.6939606249E+00   -5.6737692330E+00   -5.6537205390E+00
   -5.6338130347E+00   -5.6140452339E+00   -5.5944156710E+00   -5.5749229012E+00
   -5.5555654993E+00   -5.5363420601E+00   -5.5172511978E+00   -5.4982915454E+00
   -5.4794617550E+00   -5.4607604968E+00   -5.4421864592E+00   -5.4237383484E+00
   -5.4054148882E+00   -5.3872148192E+00   -5.3691368993E+00   -5.3511799030E+00
   -5.3333426208E+00   -5.3156238596E+00   -5.2980224421E+00   -5.2805372063E+00
   -5.2631670056E+00   -5.2459107086E+00   -5.2287671985E+00   -5.2117353731E+00
   -5.1948141445E+00   -5.1780024390E+00   -5.1612991966E+00   -5.1447033710E+00
   -5.1282139294E+00   -5.1118298520E+00   -5.0955501321E+00   -5.0793737759E+00
   -5.0632998020E+00   -5.0473272415E+00   -5.0314551376E+00   -5.0156825455E+00
   -5.0000085324E+00   -4.9844321768E+00   -4.9689525690E+00   -4.9535688102E+00
   -4.9382800130E+00   -4.9230853008E+00   -4.9079838078E+00   -4.8929746788E+00
   -4.8780570688E+00   -4.8632301434E+00   -4.8484930781E+00   -4.8338450585E+00
   -4.8192852799E+00   -4.8048129475E+00   -4.7904272756E+00   -4.7761274883E+00
   -4.7619128187E+00   -4.7477825091E+00   -4.7337358106E+00   -4.7197719834E+00
   -4.7058902962E+00   -4.6920900263E+00   -4.6783704597E+00   -4.6647308903E+00
   -4.6511706207E+00   -4.6376889611E+00   -4.6242852299E+00   -4.6109587535E+00
   -4.5977088659E+00   -4.5845349086E+00   -4.5714362309E+00   -4.5584121893E+00
   -4.5454621477E+00   -4.5325854773E+00   -4.5197815562E+00   -4.5070497695E+00
   -4.4943895096E+00   -4.4818001752E+00   -4.4692811721E+00   -4.4568319125E+00
   -4.4444518152E+00   -4.4321403055E+00   -4.4198968148E+00   -4.4077207812E+00
   -4.3956116487E+00   -4.3835688673E+00   -4.3715918932E+00   -4.3596801884E+00
   -4.3478332210E+00   -4.3360504645E+00   -4.3243313983E+00   -4.3126755075E+00
   -4.3010822824E+00   -4.2895512192E+00   -4.2780818192E+00   -4.2666735891E+00
   -4.2553260409E+00   -4.2440386916E+00   -4.2328110635E+00   -4.2216426838E+00
   -4.2105330849E+00   -4.1994818038E+00   -4.1884883827E+00   -4.1775523682E+00
   -4.1666733119E+00   -4.1558507700E+00   -4.1450843032E+00   -4.1343734768E+00
   -4.1237178607E+00   -4.1131170291E+00   -4.1025705605E+00   -4.0920780378E+00
   -4.0816390482E+00   -4.0712531830E+00   -4.0609200378E+00   -4.0506392121E+00
   -4.0404103096E+00   -4.0302329380E+00   -4.0201067087E+00   -4.0100312373E+00
   -4.0000061431E+00   -3.9900310492E+00   -3.9801055824E+00   -3.9702293734E+00
   -3.9604020564E+00   -3.9506232692E+00   -3.9408926532E+00   -3.9312098534E+00
   -3.9215745181E+00   -3.9119862992E+00   -3.9024448521E+00   -3.8929498351E+00
   -3.8835009104E+00   -3.8740977431E+00   -3.8647400015E+00   -3.8554273574E+00
   -3.8461594856E+00   -3.8369360638E+00   -3.8277567731E+00   -3.8186212976E+00
   -3.8095293242E+00   -3.8004805430E+00   -3.7914746469E+00   -3.7825113318E+00
   -3.7735902965E+00   -3.7647112423E+00   -3.7558738738E+00   -3.7470778980E+00
   -3.7383230249E+00   -3.7296089669E+00   -3.7209354394E+00   -3.7123021602E+00
   -3.7037088498E+00   -3.6951552313E+00   -3.6866410304E+00   -3.6781659751E+00
   -3.6697297962E+00   -3.6613322268E+00   -3.6529730024E+00   -3.6446518609E+00
   -3.6363685428E+00   -3.6281227907E+00   -3.6199143497E+00   -3.6117429671E+00
   -3.6036083924E+00   -3.5955103776E+00   -3.5874486768E+00   -3.5794230462E+00
   -3.5714332442E+00   -3.5634790316E+00   -3.5555601710E+00   -3.5476764272E+00
   -3.5398275673E+00   -3.5320133601E+00   -3.5242335768E+00   -3.5164879903E+00
   -3.5087763757E+00   -3.5010985099E+00   -3.4934541719E+00   -3.4858431426E+00
   -3.4782652046E+00   -3.4707201428E+00   -3.4632077436E+00   -3.4557277954E+00
   -3.4482800883E+00   -3.4408644143E+00   -3.4334805673E+00   -3.4261283428E+00
   -3.4188075381E+00   -3.4115179521E+00   -3.4042593857E+00   -3.3970316412E+00
   -3.3898345228E+00   -3.3826678361E+00   -3.3755313887E+00   -3.3684249895E+00
   -3.3613484492E+00   -3.3543015798E+00   -3.3472841953E+00   -3.3402961110E+00
   -3.3333371437E+00   -3.3264071119E+00   -3.3195058354E+00   -3.3126331357E+00
   -3.3057888355E+00   -3.2989727593E+00   -3.2921847328E+00   -3.2854245833E+00
   -3.2786921393E+00   -3.2719872309E+00   -3.2653096895E+00   -3.2586593480E+00
   -3.2520360403E+00   -3.2454396021E+00   -3.2388698702E+00   -3.2323266826E+00
   -3.2258098789E+00   -3.2193192998E+00   -3.2128547874E+00   -3.2064161848E+00
   -3.2000033367E+00   -3.1936160888E+00   -3.1872542882E+00   -3.1809177830E+00
   -3.1746064228E+00   -3.1683200580E+00   -3.1620585406E+00   -3.1558217235E+00
   -3.1496094609E+00   -3.1434216079E+00   -3.1372580211E+00   -3.1311185580E+00
   -3.1250030772E+00   -3.1189114384E+00   -3.1128435026E+00   -3.1067991316E+00
   -3.1007781885E+00   -3.0947805372E+00   -3.0888060430E+00   -3.0828545719E+00
   -3.0769259911E+00   -3.0710201689E+00   -3.0651369743E+00   -3.0592762777E+00
   -3.0534379502E+00   -3.0476218640E+00   -3.0418278922E+00   -3.0360559090E+00
   -3.0303057894E+00   -3.0245774094E+00   -3.0188706460E+00   -3.0131853771E+00
   -3.0075214814E+00   -3.0018788386E+00   -2.9962573294E+00   -2.9906568352E+00
   -2.9850772385E+00   -2.9795184224E+00   -2.9739802711E+00   -2.9684626695E+00
   -2.9629655036E+00   -2.9574886600E+00   -2.9520320261E+00   -2.9465954905E+00
   -2.9411789421E+00   -2.9357822710E+00   -2.9304053680E+00   -2.9250481247E+00
   -2.9197104333E+00   -2.9143921872E+00   -2.9090932802E+00   -2.9038136070E+00
   -2.8985530632E+00   -2.8933115448E+00   -2.8880889490E+00   -2.8828851733E+00
   -2.8777001164E+00   -2.8725336772E+00   -2.8673857559E+00   -2.8622562529E+00
   -2.8571450696E+00   -2.8520521080E+00   -2.8469772709E+00   -2.8419204617E+00
   -2.8368815845E+00   -2.8318605440E+00   -2.8268572458E+00   -2.8218715960E+00
   -2.8169035013E+00   -2.8119528692E+00   -2.8070196078E+00   -2.8021036258E+00
   -2.7972048327E+00   -2.7923231383E+00   -2.7874584533E+00   -2.7826106891E+00
   -2.7777797574E+00   -2.7729655707E+00   -2.7681680422E+00   -2.7633870855E+00
   -2.7586226149E+00   -2.7538745453E+00   -2.7491427921E+00   -2.7444272714E+00
   -2.7397278997E+00   -2.7350445944E+00   -2.7303772730E+00   -2.7257258540E+00
   -2.7210902562E+00   -2.7164703990E+00   -2.7118662024E+00   -2.7072775869E+00
   -2.7027044735E+00   -2.6981467838E+00   -2.6936044399E+00   -2.6890773644E+00
   -2.6845654805E+00   -2.6800687118E+00   -2.6755869825E+00   -2.6711202173E+00
   -2.6666683414E+00   -2.6622312804E+00   -2.6578089605E+00   -2.6534013083E+00