<UPF version="2.0.1">
  <PP_INFO>

 This pseudopotential file has been produced using the code
 ONCVPSP  (Optimized Norm-Conservinng Vanderbilt PSeudopotential)
 fully-relativistic version 3.3.0 08/16/2017 by D. R. Hamann
 The code is available through a link at URL www.mat-simresearch.com.
 Documentation with the package provides a full discription of the
 input data below.


 While it is not required under the terms of the GNU GPL, it is
 suggested that you cite D. R. Hamann, Phys. Rev. B 88, 085117 (2013)
 in any publication using these pseudopotentials.

    <PP_INPUTFILE>
# ATOM AND REFERENCE CONFIGURATION
# atsym  z   nc   nv     iexc    psfile
  O  8.00    1    2       4      upf
#
#   n    l    f        energy (Ha)
    1    0    2.00
    2    0    2.00
    2    1    4.00
#
# PSEUDOPOTENTIAL AND OPTIMIZATION
# lmax
    1
#
#   l,   rc,     ep,   ncon, nbas, qcut
    0   1.28705  -0.88055    5    8   8.98916
    1   1.46383  -0.33140    5    8   9.14990
#
# LOCAL POTENTIAL
# lloc, lpopt,  rc(5),   dvloc0
    4    5   0.89909      0.00000
#
# VANDERBILT-KLEINMAN-BYLANDER PROJECTORs
# l, nproj, debl
    0    2   1.51851
    1    2   1.53586
#
# MODEL CORE CHARGE
# icmod, fcfact, rcfact
    0   0.00000   0.00000
#
# LOG DERIVATIVE ANALYSIS
# epsh1, epsh2, depsh
   -5.00    3.00    0.02
#
# OUTPUT GRID
# rlmax, drl
    6.00    0.01
#
# TEST CONFIGURATIONS
# ncnf
    0
# nvcnf
#   n    l    f
    </PP_INPUTFILE>
  </PP_INFO>
  <!--                               -->
  <!-- END OF HUMAN READABLE SECTION -->
  <!--                               -->
    <PP_HEADER
       generated="Generated using ONCVPSP code by D. R. Hamann"
       author="anonymous"
       date="170818"
       comment=""
       element="O "
       pseudo_type="NC"
       relativistic="full"
       is_ultrasoft="F"
       is_paw="F"
       is_coulomb="F"
       has_so="T"
       has_wfc="F"
       has_gipaw="F"
       core_correction="F"
       functional="PBE"
       z_valence="    6.00"
       total_psenergy="  -3.14335475713E+01"
       rho_cutoff="   9.35000000000E+00"
       l_max="1"
       l_local="-1"
       mesh_size="   936"
       number_of_wfc="3"
       number_of_proj="6"/>
 <PP_MESH>
   <PP_R type="real"  size=" 936" columns="8">
    0.0000    0.0100    0.0200    0.0300    0.0400    0.0500    0.0600    0.0700
    0.0800    0.0900    0.1000    0.1100    0.1200    0.1300    0.1400    0.1500
    0.1600    0.1700    0.1800    0.1900    0.2000    0.2100    0.2200    0.2300
    0.2400    0.2500    0.2600    0.2700    0.2800    0.2900    0.3000    0.3100
    0.3200    0.3300    0.3400    0.3500    0.3600    0.3700    0.3800    0.3900
    0.4000    0.4100    0.4200    0.4300    0.4400    0.4500    0.4600    0.4700
    0.4800    0.4900    0.5000    0.5100    0.5200    0.5300    0.5400    0.5500
    0.5600    0.5700    0.5800    0.5900    0.6000    0.6100    0.6200    0.6300
    0.6400    0.6500    0.6600    0.6700    0.6800    0.6900    0.7000    0.7100
    0.7200    0.7300    0.7400    0.7500    0.7600    0.7700    0.7800    0.7900
    0.8000    0.8100    0.8200    0.8300    0.8400    0.8500    0.8600    0.8700
    0.8800    0.8900    0.9000    0.9100    0.9200    0.9300    0.9400    0.9500
    0.9600    0.9700    0.9800    0.9900    1.0000    1.0100    1.0200    1.0300
    1.0400    1.0500    1.0600    1.0700    1.0800    1.0900    1.1000    1.1100
    1.1200    1.1300    1.1400    1.1500    1.1600    1.1700    1.1800    1.1900
    1.2000    1.2100    1.2200    1.2300    1.2400    1.2500    1.2600    1.2700
    1.2800    1.2900    1.3000    1.3100    1.3200    1.3300    1.3400    1.3500
    1.3600    1.3700    1.3800    1.3900    1.4000    1.4100    1.4200    1.4300
    1.4400    1.4500    1.4600    1.4700    1.4800    1.4900    1.5000    1.5100
    1.5200    1.5300    1.5400    1.5500    1.5600    1.5700    1.5800    1.5900
    1.6000    1.6100    1.6200    1.6300    1.6400    1.6500    1.6600    1.6700
    1.6800    1.6900    1.7000    1.7100    1.7200    1.7300    1.7400    1.7500
    1.7600    1.7700    1.7800    1.7900    1.8000    1.8100    1.8200    1.8300
    1.8400    1.8500    1.8600    1.8700    1.8800    1.8900    1.9000    1.9100
    1.9200    1.9300    1.9400    1.9500    1.9600    1.9700    1.9800    1.9900
    2.0000    2.0100    2.0200    2.0300    2.0400    2.0500    2.0600    2.0700
    2.0800    2.0900    2.1000    2.1100    2.1200    2.1300    2.1400    2.1500
    2.1600    2.1700    2.1800    2.1900    2.2000    2.2100    2.2200    2.2300
    2.2400    2.2500    2.2600    2.2700    2.2800    2.2900    2.3000    2.3100
    2.3200    2.3300    2.3400    2.3500    2.3600    2.3700    2.3800    2.3900
    2.4000    2.4100    2.4200    2.4300    2.4400    2.4500    2.4600    2.4700
    2.4800    2.4900    2.5000    2.5100    2.5200    2.5300    2.5400    2.5500
    2.5600    2.5700    2.5800    2.5900    2.6000    2.6100    2.6200    2.6300
    2.6400    2.6500    2.6600    2.6700    2.6800    2.6900    2.7000    2.7100
    2.7200    2.7300    2.7400    2.7500    2.7600    2.7700    2.7800    2.7900
    2.8000    2.8100    2.8200    2.8300    2.8400    2.8500    2.8600    2.8700
    2.8800    2.8900    2.9000    2.9100    2.9200    2.9300    2.9400    2.9500
    2.9600    2.9700    2.9800    2.9900    3.0000    3.0100    3.0200    3.0300
    3.0400    3.0500    3.0600    3.0700    3.0800    3.0900    3.1000    3.1100
    3.1200    3.1300    3.1400    3.1500    3.1600    3.1700    3.1800    3.1900
    3.2000    3.2100    3.2200    3.2300    3.2400    3.2500    3.2600    3.2700
    3.2800    3.2900    3.3000    3.3100    3.3200    3.3300    3.3400    3.3500
    3.3600    3.3700    3.3800    3.3900    3.4000    3.4100    3.4200    3.4300
    3.4400    3.4500    3.4600    3.4700    3.4800    3.4900    3.5000    3.5100
    3.5200    3.5300    3.5400    3.5500    3.5600    3.5700    3.5800    3.5900
    3.6000    3.6100    3.6200    3.6300    3.6400    3.6500    3.6600    3.6700
    3.6800    3.6900    3.7000    3.7100    3.7200    3.7300    3.7400    3.7500
    3.7600    3.7700    3.7800    3.7900    3.8000    3.8100    3.8200    3.8300
    3.8400    3.8500    3.8600    3.8700    3.8800    3.8900    3.9000    3.9100
    3.9200    3.9300    3.9400    3.9500    3.9600    3.9700    3.9800    3.9900
    4.0000    4.0100    4.0200    4.0300    4.0400    4.0500    4.0600    4.0700
    4.0800    4.0900    4.1000    4.1100    4.1200    4.1300    4.1400    4.1500
    4.1600    4.1700    4.1800    4.1900    4.2000    4.2100    4.2200    4.2300
    4.2400    4.2500    4.2600    4.2700    4.2800    4.2900    4.3000    4.3100
    4.3200    4.3300    4.3400    4.3500    4.3600    4.3700    4.3800    4.3900
    4.4000    4.4100    4.4200    4.4300    4.4400    4.4500    4.4600    4.4700
    4.4800    4.4900    4.5000    4.5100    4.5200    4.5300    4.5400    4.5500
    4.5600    4.5700    4.5800    4.5900    4.6000    4.6100    4.6200    4.6300
    4.6400    4.6500    4.6600    4.6700    4.6800    4.6900    4.7000    4.7100
    4.7200    4.7300    4.7400    4.7500    4.7600    4.7700    4.7800    4.7900
    4.8000    4.8100    4.8200    4.8300    4.8400    4.8500    4.8600    4.8700
    4.8800    4.8900    4.9000    4.9100    4.9200    4.9300    4.9400    4.9500
    4.9600    4.9700    4.9800    4.9900    5.0000    5.0100    5.0200    5.0300
    5.0400    5.0500    5.0600    5.0700    5.0800    5.0900    5.1000    5.1100
    5.1200    5.1300    5.1400    5.1500    5.1600    5.1700    5.1800    5.1900
    5.2000    5.2100    5.2200    5.2300    5.2400    5.2500    5.2600    5.2700
    5.2800    5.2900    5.3000    5.3100    5.3200    5.3300    5.3400    5.3500
    5.3600    5.3700    5.3800    5.3900    5.4000    5.4100    5.4200    5.4300
    5.4400    5.4500    5.4600    5.4700    5.4800    5.4900    5.5000    5.5100
    5.5200    5.5300    5.5400    5.5500    5.5600    5.5700    5.5800    5.5900
    5.6000    5.6100    5.6200    5.6300    5.6400    5.6500    5.6600    5.6700
    5.6800    5.6900    5.7000    5.7100    5.7200    5.7300    5.7400    5.7500
    5.7600    5.7700    5.7800    5.7900    5.8000    5.8100    5.8200    5.8300
    5.8400    5.8500    5.8600    5.8700    5.8800    5.8900    5.9000    5.9100
    5.9200    5.9300    5.9400    5.9500    5.9600    5.9700    5.9800    5.9900
    6.0000    6.0100    6.0200    6.0300    6.0400    6.0500    6.0600    6.0700
    6.0800    6.0900    6.1000    6.1100    6.1200    6.1300    6.1400    6.1500
    6.1600    6.1700    6.1800    6.1900    6.2000    6.2100    6.2200    6.2300
    6.2400    6.2500    6.2600    6.2700    6.2800    6.2900    6.3000    6.3100
    6.3200    6.3300    6.3400    6.3500    6.3600    6.3700    6.3800    6.3900
    6.4000    6.4100    6.4200    6.4300    6.4400    6.4500    6.4600    6.4700
    6.4800    6.4900    6.5000    6.5100    6.5200    6.5300    6.5400    6.5500
    6.5600    6.5700    6.5800    6.5900    6.6000    6.6100    6.6200    6.6300
    6.6400    6.6500    6.6600    6.6700    6.6800    6.6900    6.7000    6.7100
    6.7200    6.7300    6.7400    6.7500    6.7600    6.7700    6.7800    6.7900
    6.8000    6.8100    6.8200    6.8300    6.8400    6.8500    6.8600    6.8700
    6.8800    6.8900    6.9000    6.9100    6.9200    6.9300    6.9400    6.9500
    6.9600    6.9700    6.9800    6.9900    7.0000    7.0100    7.0200    7.0300
    7.0400    7.0500    7.0600    7.0700    7.0800    7.0900    7.1000    7.1100
    7.1200    7.1300    7.1400    7.1500    7.1600    7.1700    7.1800    7.1900
    7.2000    7.2100    7.2200    7.2300    7.2400    7.2500    7.2600    7.2700
    7.2800    7.2900    7.3000    7.3100    7.3200    7.3300    7.3400    7.3500
    7.3600    7.3700    7.3800    7.3900    7.4000    7.4100    7.4200    7.4300
    7.4400    7.4500    7.4600    7.4700    7.4800    7.4900    7.5000    7.5100
    7.5200    7.5300    7.5400    7.5500    7.5600    7.5700    7.5800    7.5900
    7.6000    7.6100    7.6200    7.6300    7.6400    7.6500    7.6600    7.6700
    7.6800    7.6900    7.7000    7.7100    7.7200    7.7300    7.7400    7.7500
    7.7600    7.7700    7.7800    7.7900    7.8000    7.8100    7.8200    7.8300
    7.8400    7.8500    7.8600    7.8700    7.8800    7.8900    7.9000    7.9100
    7.9200    7.9300    7.9400    7.9500    7.9600    7.9700    7.9800    7.9900
    8.0000    8.0100    8.0200    8.0300    8.0400    8.0500    8.0600    8.0700
    8.0800    8.0900    8.1000    8.1100    8.1200    8.1300    8.1400    8.1500
    8.1600    8.1700    8.1800    8.1900    8.2000    8.2100    8.2200    8.2300
    8.2400    8.2500    8.2600    8.2700    8.2800    8.2900    8.3000    8.3100
    8.3200    8.3300    8.3400    8.3500    8.3600    8.3700    8.3800    8.3900
    8.4000    8.4100    8.4200    8.4300    8.4400    8.4500    8.4600    8.4700
    8.4800    8.4900    8.5000    8.5100    8.5200    8.5300    8.5400    8.5500
    8.5600    8.5700    8.5800    8.5900    8.6000    8.6100    8.6200    8.6300
    8.6400    8.6500    8.6600    8.6700    8.6800    8.6900    8.7000    8.7100
    8.7200    8.7300    8.7400    8.7500    8.7600    8.7700    8.7800    8.7900
    8.8000    8.8100    8.8200    8.8300    8.8400    8.8500    8.8600    8.8700
    8.8800    8.8900    8.9000    8.9100    8.9200    8.9300    8.9400    8.9500
    8.9600    8.9700    8.9800    8.9900    9.0000    9.0100    9.0200    9.0300
    9.0400    9.0500    9.0600    9.0700    9.0800    9.0900    9.1000    9.1100
    9.1200    9.1300    9.1400    9.1500    9.1600    9.1700    9.1800    9.1900
    9.2000    9.2100    9.2200    9.2300    9.2400    9.2500    9.2600    9.2700
    9.2800    9.2900    9.3000    9.3100    9.3200    9.3300    9.3400    9.3500
   </PP_R>
   <PP_RAB type="real"  size=" 936" columns="8">
    0.0100    0.0100    0.0100    0.0100    0.0100    0.0100    0.0100    0.0100
    0.0100    0.0100    0.0100    0.0100    0.0100    0.0100    0.0100    0.0100
    0.0100    0.0100    0.0100    0.0100    0.0100    0.0100    0.0100    0.0100
    0.0100    0.0100    0.0100    0.0100    0.0100    0.0100    0.0100    0.0100
    0.0100    0.0100    0.0100    0.0100    0.0100    0.0100    0.0100    0.0100
    0.0100    0.0100    0.0100    0.0100    0.0100    0.0100    0.0100    0.0100
    0.0100    0.0100    0.0100    0.0100    0.0100    0.0100    0.0100    0.0100
    0.0100    0.0100    0.0100    0.0100    0.0100    0.0100    0.0100    0.0100
    0.0100    0.0100    0.0100    0.0100    0.0100    0.0100    0.0100    0.0100
    0.0100    0.0100    0.0100    0.0100    0.0100    0.0100    0.0100    0.0100
    0.0100    0.0100    0.0100    0.0100    0.0100    0.0100    0.0100    0.0100
    0.0100    0.0100    0.0100    0.0100    0.0100    0.0100    0.0100    0.0100
    0.0100    0.0100    0.0100    0.0100    0.0100    0.0100    0.0100    0.0100
    0.0100    0.0100    0.0100    0.0100    0.0100    0.0100    0.0100    0.0100
    0.0100    0.0100    0.0100    0.0100    0.0100    0.0100    0.0100    0.0100
    0.0100    0.0100    0.0100    0.0100    0.0100    0.0100    0.0100    0.0100
    0.0100    0.0100    0.0100    0.0100    0.0100    0.0100    0.0100    0.0100
    0.0100    0.0100    0.0100    0.0100    0.0100    0.0100    0.0100    0.0100
    0.0100    0.0100    0.0100    0.0100    0.0100    0.0100    0.0100    0.0100
    0.0100    0.0100    0.0100    0.0100    0.0100    0.0100    0.0100    0.0100
    0.0100    0.0100    0.0100    0.0100    0.0100    0.0100    0.0100    0.0100
    0.0100    0.0100    0.0100    0.0100    0.0100    0.0100    0.0100    0.0100
    0.0100    0.0100    0.0100    0.0100    0.0100    0.0100    0.0100    0.0100
    0.0100    0.0100    0.0100    0.0100    0.0100    0.0100    0.0100    0.0100
    0.0100    0.0100    0.0100    0.0100    0.0100    0.0100    0.0100    0.0100
    0.0100    0.0100    0.0100    0.0100    0.0100    0.0100    0.0100    0.0100
    0.0100    0.0100    0.0100    0.0100    0.0100    0.0100    0.0100    0.0100
    0.0100    0.0100    0.0100    0.0100    0.0100    0.0100    0.0100    0.0100
    0.0100    0.0100    0.0100    0.0100    0.0100    0.0100    0.0100    0.0100
    0.0100    0.0100    0.0100    0.0100    0.0100    0.0100    0.0100    0.0100
    0.0100    0.0100    0.0100    0.0100    0.0100    0.0100    0.0100    0.0100
    0.0100    0.0100    0.0100    0.0100    0.0100    0.0100    0.0100    0.0100
    0.0100    0.0100    0.0100    0.0100    0.0100    0.0100    0.0100    0.0100
    0.0100    0.0100    0.0100    0.0100    0.0100    0.0100    0.0100    0.0100
    0.0100    0.0100    0.0100    0.0100    0.0100    0.0100    0.0100    0.0100
    0.0100    0.0100    0.0100    0.0100    0.0100    0.0100    0.0100    0.0100
    0.0100    0.0100    0.0100    0.0100    0.0100    0.0100    0.0100    0.0100
    0.0100    0.0100    0.0100    0.0100    0.0100    0.0100    0.0100    0.0100
    0.0100    0.0100    0.0100    0.0100    0.0100    0.0100    0.0100    0.0100
    0.0100    0.0100    0.0100    0.0100    0.0100    0.0100    0.0100    0.0100
    0.0100    0.0100    0.0100    0.0100    0.0100    0.0100    0.0100    0.0100
    0.0100    0.0100    0.0100    0.0100    0.0100    0.0100    0.0100    0.0100
    0.0100    0.0100    0.0100    0.0100    0.0100    0.0100    0.0100    0.0100
    0.0100    0.0100    0.0100    0.0100    0.0100    0.0100    0.0100    0.0100
    0.0100    0.0100    0.0100    0.0100    0.0100    0.0100    0.0100    0.0100
    0.0100    0.0100    0.0100    0.0100    0.0100    0.0100    0.0100    0.0100
    0.0100    0.0100    0.0100    0.0100    0.0100    0.0100    0.0100    0.0100
    0.0100    0.0100    0.0100    0.0100    0.0100    0.0100    0.0100    0.0100
    0.0100    0.0100    0.0100    0.0100    0.0100    0.0100    0.0100    0.0100
    0.0100    0.0100    0.0100    0.0100    0.0100    0.0100    0.0100    0.0100
    0.0100    0.0100    0.0100    0.0100    0.0100    0.0100    0.0100    0.0100
    0.0100    0.0100    0.0100    0.0100    0.0100    0.0100    0.0100    0.0100
    0.0100    0.0100    0.0100    0.0100    0.0100    0.0100    0.0100    0.0100
    0.0100    0.0100    0.0100    0.0100    0.0100    0.0100    0.0100    0.0100
    0.0100    0.0100    0.0100    0.0100    0.0100    0.0100    0.0100    0.0100
    0.0100    0.0100    0.0100    0.0100    0.0100    0.0100    0.0100    0.0100
    0.0100    0.0100    0.0100    0.0100    0.0100    0.0100    0.0100    0.0100
    0.0100    0.0100    0.0100    0.0100    0.0100    0.0100    0.0100    0.0100
    0.0100    0.0100    0.0100    0.0100    0.0100    0.0100    0.0100    0.0100
    0.0100    0.0100    0.0100    0.0100    0.0100    0.0100    0.0100    0.0100
    0.0100    0.0100    0.0100    0.0100    0.0100    0.0100    0.0100    0.0100
    0.0100    0.0100    0.0100    0.0100    0.0100    0.0100    0.0100    0.0100
    0.0100    0.0100    0.0100    0.0100    0.0100    0.0100    0.0100    0.0100
    0.0100    0.0100    0.0100    0.0100    0.0100    0.0100    0.0100    0.0100
    0.0100    0.0100    0.0100    0.0100    0.0100    0.0100    0.0100    0.0100
    0.0100    0.0100    0.0100    0.0100    0.0100    0.0100    0.0100    0.0100
    0.0100    0.0100    0.0100    0.0100    0.0100    0.0100    0.0100    0.0100
    0.0100    0.0100    0.0100    0.0100    0.0100    0.0100    0.0100    0.0100
    0.0100    0.0100    0.0100    0.0100    0.0100    0.0100    0.0100    0.0100
    0.0100    0.0100    0.0100    0.0100    0.0100    0.0100    0.0100    0.0100
    0.0100    0.0100    0.0100    0.0100    0.0100    0.0100    0.0100    0.0100
    0.0100    0.0100    0.0100    0.0100    0.0100    0.0100    0.0100    0.0100
    0.0100    0.0100    0.0100    0.0100    0.0100    0.0100    0.0100    0.0100
    0.0100    0.0100    0.0100    0.0100    0.0100    0.0100    0.0100    0.0100
    0.0100    0.0100    0.0100    0.0100    0.0100    0.0100    0.0100    0.0100
    0.0100    0.0100    0.0100    0.0100    0.0100    0.0100    0.0100    0.0100
    0.0100    0.0100    0.0100    0.0100    0.0100    0.0100    0.0100    0.0100
    0.0100    0.0100    0.0100    0.0100    0.0100    0.0100    0.0100    0.0100
    0.0100    0.0100    0.0100    0.0100    0.0100    0.0100    0.0100    0.0100
    0.0100    0.0100    0.0100    0.0100    0.0100    0.0100    0.0100    0.0100
    0.0100    0.0100    0.0100    0.0100    0.0100    0.0100    0.0100    0.0100
    0.0100    0.0100    0.0100    0.0100    0.0100    0.0100    0.0100    0.0100
    0.0100    0.0100    0.0100    0.0100    0.0100    0.0100    0.0100    0.0100
    0.0100    0.0100    0.0100    0.0100    0.0100    0.0100    0.0100    0.0100
    0.0100    0.0100    0.0100    0.0100    0.0100    0.0100    0.0100    0.0100
    0.0100    0.0100    0.0100    0.0100    0.0100    0.0100    0.0100    0.0100
    0.0100    0.0100    0.0100    0.0100    0.0100    0.0100    0.0100    0.0100
    0.0100    0.0100    0.0100    0.0100    0.0100    0.0100    0.0100    0.0100
    0.0100    0.0100    0.0100    0.0100    0.0100    0.0100    0.0100    0.0100
    0.0100    0.0100    0.0100    0.0100    0.0100    0.0100    0.0100    0.0100
    0.0100    0.0100    0.0100    0.0100    0.0100    0.0100    0.0100    0.0100
    0.0100    0.0100    0.0100    0.0100    0.0100    0.0100    0.0100    0.0100
    0.0100    0.0100    0.0100    0.0100    0.0100    0.0100    0.0100    0.0100
    0.0100    0.0100    0.0100    0.0100    0.0100    0.0100    0.0100    0.0100
    0.0100    0.0100    0.0100    0.0100    0.0100    0.0100    0.0100    0.0100
    0.0100    0.0100    0.0100    0.0100    0.0100    0.0100    0.0100    0.0100
    0.0100    0.0100    0.0100    0.0100    0.0100    0.0100    0.0100    0.0100
    0.0100    0.0100    0.0100    0.0100    0.0100    0.0100    0.0100    0.0100
    0.0100    0.0100    0.0100    0.0100    0.0100    0.0100    0.0100    0.0100
    0.0100    0.0100    0.0100    0.0100    0.0100    0.0100    0.0100    0.0100
    0.0100    0.0100    0.0100    0.0100    0.0100    0.0100    0.0100    0.0100
    0.0100    0.0100    0.0100    0.0100    0.0100    0.0100    0.0100    0.0100
    0.0100    0.0100    0.0100    0.0100    0.0100    0.0100    0.0100    0.0100
    0.0100    0.0100    0.0100    0.0100    0.0100    0.0100    0.0100    0.0100
    0.0100    0.0100    0.0100    0.0100    0.0100    0.0100    0.0100    0.0100
    0.0100    0.0100    0.0100    0.0100    0.0100    0.0100    0.0100    0.0100
    0.0100    0.0100    0.0100    0.0100    0.0100    0.0100    0.0100    0.0100
    0.0100    0.0100    0.0100    0.0100    0.0100    0.0100    0.0100    0.0100
    0.0100    0.0100    0.0100    0.0100    0.0100    0.0100    0.0100    0.0100
    0.0100    0.0100    0.0100    0.0100    0.0100    0.0100    0.0100    0.0100
    0.0100    0.0100    0.0100    0.0100    0.0100    0.0100    0.0100    0.0100
    0.0100    0.0100    0.0100    0.0100    0.0100    0.0100    0.0100    0.0100
    0.0100    0.0100    0.0100    0.0100    0.0100    0.0100    0.0100    0.0100
    0.0100    0.0100    0.0100    0.0100    0.0100    0.0100    0.0100    0.0100
    0.0100    0.0100    0.0100    0.0100    0.0100    0.0100    0.0100    0.0100
    0.0100    0.0100    0.0100    0.0100    0.0100    0.0100    0.0100    0.0100
    0.0100    0.0100    0.0100    0.0100    0.0100    0.0100    0.0100    0.0100
   </PP_RAB>
 </PP_MESH>
  <PP_LOCAL type="real"  size=" 936" columns="4">
   -2.8925854216E+01   -3.0775049537E+01   -3.2335824121E+01   -3.2741234327E+01
   -3.2437526292E+01   -3.1934280491E+01   -3.1461611864E+01   -3.1078663728E+01
   -3.0777633659E+01   -3.0534921146E+01   -3.0328758682E+01   -3.0142899732E+01
   -2.9966084617E+01   -2.9790777363E+01   -2.9612107166E+01   -2.9427127395E+01
   -2.9234309434E+01   -2.9033178281E+01   -2.8824027077E+01   -2.8607677800E+01
   -2.8385276083E+01   -2.8158119320E+01   -2.7927521022E+01   -2.7694713270E+01
   -2.7460785805E+01   -2.7226656735E+01   -2.6993067514E+01   -2.6760593974E+01
   -2.6529665870E+01   -2.6300588833E+01   -2.6073564490E+01   -2.5848706241E+01
   -2.5626049648E+01   -2.5405557520E+01   -2.5187120629E+01   -2.4970555580E+01
   -2.4755601802E+01   -2.4541919862E+01   -2.4329093312E+01   -2.4116636020E+01
   -2.3904006305E+01   -2.3690628277E+01   -2.3475919581E+01   -2.3259323522E+01
   -2.3040342523E+01   -2.2818569269E+01   -2.2593711953E+01   -2.2365610754E+01
   -2.2134243918E+01   -2.1899723322E+01   -2.1662280801E+01   -2.1422247616E+01
   -2.1180029967E+01   -2.0936083455E+01   -2.0690888986E+01   -2.0444931884E+01
   -2.0198685226E+01   -1.9952597702E+01   -1.9707085762E+01   -1.9462529451E+01
   -1.9219271181E+01   -1.8977616648E+01   -1.8737837157E+01   -1.8500172763E+01
   -1.8264835752E+01   -1.8032014113E+01   -1.7801874798E+01   -1.7574566617E+01
   -1.7350222723E+01   -1.7128962654E+01   -1.6910893970E+01   -1.6696113508E+01
   -1.6484708304E+01   -1.6276756225E+01   -1.6072326374E+01   -1.5871479288E+01
   -1.5674266987E+01   -1.5480732896E+01   -1.5290911672E+01   -1.5104828954E+01
   -1.4922501062E+01   -1.4743934650E+01   -1.4569126337E+01   -1.4398062310E+01
   -1.4230717915E+01   -1.4067057236E+01   -1.3907032677E+01   -1.3750584524E+01
   -1.3597640516E+01   -1.3448115402E+01   -1.3301910610E+01   -1.3158913494E+01
   -1.3019003734E+01   -1.2882063341E+01   -1.2747980264E+01   -1.2616647662E+01
   -1.2487963877E+01   -1.2361832295E+01   -1.2238161197E+01   -1.2116863628E+01
   -1.1997857272E+01   -1.1881064319E+01   -1.1766411344E+01   -1.1653829179E+01
   -1.1543252779E+01   -1.1434621092E+01   -1.1327876916E+01   -1.1222966750E+01
   -1.1119840637E+01   -1.1018451995E+01   -1.0918757438E+01   -1.0820716587E+01
   -1.0724291863E+01   -1.0629448276E+01   -1.0536153197E+01   -1.0444376125E+01
   -1.0354088441E+01   -1.0265263164E+01   -1.0177874696E+01   -1.0091898573E+01
   -1.0007311217E+01   -9.9240896971E+00   -9.8422115020E+00   -9.7616543259E+00
   -9.6823958757E+00   -9.6044136961E+00   -9.5276850331E+00   -9.4521867079E+00
   -9.3778950134E+00   -9.3047856212E+00   -9.2328337013E+00   -9.1620145098E+00
   -9.0923035214E+00   -9.0236764132E+00   -8.9561082318E+00   -8.8895738612E+00
   -8.8240490599E+00   -8.7595096739E+00   -8.6959315867E+00   -8.6332912132E+00
   -8.5715654795E+00   -8.5107318475E+00   -8.4507684307E+00   -8.3916540642E+00
   -8.3333683917E+00   -8.2758918681E+00   -8.2192057731E+00   -8.1632922846E+00
   -8.1081345394E+00   -8.0537170884E+00   -8.0000254592E+00   -7.9470450895E+00
   -7.8947617376E+00   -7.8431617884E+00   -7.7922319699E+00   -7.7419593015E+00
   -7.6923311427E+00   -7.6433351818E+00   -7.5949594164E+00   -7.5471921458E+00
   -7.5000219620E+00   -7.4534377399E+00   -7.4074286293E+00   -7.3619840461E+00
   -7.3170936641E+00   -7.2727474076E+00   -7.2289354435E+00   -7.1856481741E+00
   -7.1428762304E+00   -7.1006104647E+00   -7.0588419449E+00   -7.0175619476E+00
   -6.9767619522E+00   -6.9364336353E+00   -6.8965688645E+00   -6.8571596935E+00
   -6.8181983564E+00   -6.7796772630E+00   -6.7415889935E+00   -6.7039262938E+00
   -6.6666820712E+00   -6.6298493897E+00   -6.5934214655E+00   -6.5573916633E+00
   -6.5217534920E+00   -6.4865006009E+00   -6.4516267756E+00   -6.4171259349E+00
   -6.3829921269E+00   -6.3492195256E+00   -6.3158024278E+00   -6.2827352495E+00
   -6.2500125233E+00   -6.2176288949E+00   -6.1855791205E+00   -6.1538580638E+00
   -6.1224606934E+00   -6.0913820801E+00   -6.0606173941E+00   -6.0301619027E+00
   -6.0000109682E+00   -5.9701600447E+00   -5.9406046766E+00   -5.9113404961E+00
   -5.8823632210E+00   -5.8536686525E+00   -5.8252526737E+00   -5.7971112468E+00
   -5.7692404121E+00   -5.7416362853E+00   -5.7142950563E+00   -5.6872129872E+00
   -5.6603864106E+00   -5.6338117280E+00   -5.6074854081E+00   -5.5814039854E+00
   -5.5555640586E+00   -5.5299622888E+00   -5.5045953988E+00   -5.4794601709E+00
   -5.4545534461E+00   -5.4298721226E+00   -5.4054131543E+00   -5.3811735499E+00
   -5.3571503715E+00   -5.3333407334E+00   -5.3097418009E+00   -5.2863507894E+00
   -5.2631649631E+00   -5.2401816339E+00   -5.2173981607E+00   -5.1948119477E+00
   -5.1724204442E+00   -5.1502211433E+00   -5.1282115808E+00   -5.1063893345E+00
   -5.0847520232E+00   -5.0632973059E+00   -5.0420228812E+00   -5.0209264858E+00
   -5.0000058945E+00   -4.9792589187E+00   -4.9586834062E+00   -4.9382772401E+00
   -4.9180383384E+00   -4.8979646529E+00   -4.8780541688E+00   -4.8583049038E+00
   -4.8387149077E+00   -4.8192822616E+00   -4.8000050774E+00   -4.7808814969E+00
   -4.7619096914E+00   -4.7430878613E+00   -4.7244142352E+00   -4.7058870695E+00
   -4.6875046478E+00   -4.6692652806E+00   -4.6511673046E+00   -4.6332090821E+00
   -4.6153890004E+00   -4.5977054716E+00   -4.5801569320E+00   -4.5627418418E+00
   -4.5454586846E+00   -4.5283059670E+00   -4.5112822180E+00   -4.4943859882E+00
   -4.4776158503E+00   -4.4609703980E+00   -4.4444482459E+00   -4.4280480290E+00
   -4.4117684026E+00   -4.3956080413E+00   -4.3795656395E+00   -4.3636399102E+00
   -4.3478295854E+00   -4.3321334150E+00   -4.3165501673E+00   -4.3010786279E+00
   -4.2857176002E+00   -4.2704659041E+00   -4.2553223765E+00   -4.2402858709E+00
   -4.2253552568E+00   -4.2105294193E+00   -4.1958072596E+00   -4.1811876938E+00
   -4.1666696533E+00   -4.1522520842E+00   -4.1379339470E+00   -4.1237142168E+00
   -4.1095918825E+00   -4.0955659469E+00   -4.0816354263E+00   -4.0677993504E+00
   -4.0540567619E+00   -4.0404067166E+00   -4.0268482828E+00   -4.0133805413E+00
   -4.0000025852E+00   -3.9867135196E+00   -3.9735124615E+00   -3.9603985396E+00
   -3.9473708939E+00   -3.9344286758E+00   -3.9215710478E+00   -3.9087971833E+00
   -3.8961062663E+00   -3.8834974916E+00   -3.8709700642E+00   -3.8585231995E+00
   -3.8461561228E+00   -3.8338680693E+00   -3.8216582840E+00   -3.8095260215E+00
   -3.7974705459E+00   -3.7854911305E+00   -3.7735870576E+00   -3.7617576188E+00
   -3.7500021143E+00   -3.7383198532E+00   -3.7267101530E+00   -3.7151723399E+00
   -3.7037057481E+00   -3.6923097204E+00   -3.6809836072E+00   -3.6697267672E+00
   -3.6585385667E+00   -3.6474183800E+00   -3.6363655886E+00   -3.6253795817E+00
   -3.6144597559E+00   -3.6036055149E+00   -3.5928162696E+00   -3.5820914380E+00
   -3.5714304449E+00   -3.5608327221E+00   -3.5502977080E+00   -3.5398248475E+00
   -3.5294135924E+00   -3.5190634006E+00   -3.5087737365E+00   -3.4985440706E+00
   -3.4883738798E+00   -3.4782626468E+00   -3.4682098604E+00   -3.4582150154E+00
   -3.4482776122E+00   -3.4383971571E+00   -3.4285731619E+00   -3.4188051441E+00
   -3.4090926266E+00   -3.3994351376E+00   -3.3898322110E+00   -3.3802833855E+00
   -3.3707882052E+00   -3.3613462194E+00   -3.3519569823E+00   -3.3426200530E+00
   -3.3333349957E+00   -3.3241013794E+00   -3.3149187776E+00   -3.3057867688E+00
   -3.2967049360E+00   -3.2876728668E+00   -3.2786901533E+00   -3.2697563920E+00
   -3.2608711839E+00   -3.2520341342E+00   -3.2432448524E+00   -3.2345029523E+00
   -3.2258080518E+00   -3.2171597729E+00   -3.2085577415E+00   -3.2000015877E+00
   -3.1914909454E+00   -3.1830254525E+00   -3.1746047507E+00   -3.1662284853E+00
   -3.1578963056E+00   -3.1496078645E+00   -3.1413628184E+00   -3.1331608275E+00
   -3.1250015553E+00   -3.1168846690E+00   -3.1088098392E+00   -3.1007767398E+00
   -3.0927850482E+00   -3.0848344450E+00   -3.0769246142E+00   -3.0690552429E+00
   -3.0612260215E+00   -3.0534366436E+00   -3.0456868056E+00   -3.0379762074E+00
   -3.0303045516E+00   -3.0226715439E+00   -3.0150768931E+00   -3.0075203108E+00
   -3.0000015114E+00   -2.9925202123E+00   -2.9850761335E+00   -2.9776689982E+00
   -2.9702985318E+00   -2.9629644627E+00   -2.9556665222E+00   -2.9484044437E+00
   -2.9411779637E+00   -2.9339868210E+00   -2.9268307570E+00   -2.9197095157E+00
   -2.9126228436E+00   -2.9055704895E+00   -2.8985522047E+00   -2.8915677430E+00
   -2.8846168604E+00   -2.8776993154E+00   -2.8708148686E+00   -2.8639632832E+00
   -2.8571443244E+00   -2.8503577597E+00   -2.8436033587E+00   -2.8368808935E+00