<UPF version="2.0.1">
  <PP_INFO>

 This pseudopotential file has been produced using the code
 ONCVPSP  (Optimized Norm-Conservinng Vanderbilt PSeudopotential)
 fully-relativistic version 3.3.0 08/16/2017 by D. R. Hamann
 The code is available through a link at URL www.mat-simresearch.com.
 Documentation with the package provides a full discription of the
 input data below.


 While it is not required under the terms of the GNU GPL, it is
 suggested that you cite D. R. Hamann, Phys. Rev. B 88, 085117 (2013)
 in any publication using these pseudopotentials.

    <PP_INPUTFILE>
# ATOM AND REFERENCE CONFIGURATION
# atsym  z   nc   nv     iexc    psfile
  Ar 18.00    3    2       4      upf
#
#   n    l    f        energy (Ha)
    1    0    2.00
    2    0    2.00
    2    1    6.00
    3    0    2.00
    3    1    6.00
#
# PSEUDOPOTENTIAL AND OPTIMIZATION
# lmax
    2
#
#   l,   rc,     ep,   ncon, nbas, qcut
    0   1.55000  -0.89246    4    8   8.20000
    1   1.55000  -0.37524    4    8   8.20000
    2   1.55000   0.10000    4    8   8.20000
#
# LOCAL POTENTIAL
# lloc, lpopt,  rc(5),   dvloc0
    4    5   1.50000      0.00000
#
# VANDERBILT-KLEINMAN-BYLANDER PROJECTORs
# l, nproj, debl
    0    2   1.50000
    1    2   1.49785
    2    2   1.00000
#
# MODEL CORE CHARGE
# icmod, fcfact, rcfact
    3   7.00000   1.25000
#
# LOG DERIVATIVE ANALYSIS
# epsh1, epsh2, depsh
  -12.00   12.00    0.02
#
# OUTPUT GRID
# rlmax, drl
    4.00    0.01
#
# TEST CONFIGURATIONS
# ncnf
    0
# nvcnf
#   n    l    f
    </PP_INPUTFILE>
  </PP_INFO>
  <!--                               -->
  <!-- END OF HUMAN READABLE SECTION -->
  <!--                               -->
    <PP_HEADER
       generated="Generated using ONCVPSP code by D. R. Hamann"
       author="anonymous"
       date="170818"
       comment=""
       element="Ar"
       pseudo_type="NC"
       relativistic="full"
       is_ultrasoft="F"
       is_paw="F"
       is_coulomb="F"
       has_so="T"
       has_wfc="F"
       has_gipaw="F"
       core_correction="T"
       functional="PBE"
       z_valence="    8.00"
       total_psenergy="  -4.23149612257E+01"
       rho_cutoff="   9.37000000000E+00"
       l_max="2"
       l_local="-1"
       mesh_size="   938"
       number_of_wfc="3"
       number_of_proj="10"/>
 <PP_MESH>
   <PP_R type="real"  size=" 938" columns="8">
    0.0000    0.0100    0.0200    0.0300    0.0400    0.0500    0.0600    0.0700
    0.0800    0.0900    0.1000    0.1100    0.1200    0.1300    0.1400    0.1500
    0.1600    0.1700    0.1800    0.1900    0.2000    0.2100    0.2200    0.2300
    0.2400    0.2500    0.2600    0.2700    0.2800    0.2900    0.3000    0.3100
    0.3200    0.3300    0.3400    0.3500    0.3600    0.3700    0.3800    0.3900
    0.4000    0.4100    0.4200    0.4300    0.4400    0.4500    0.4600    0.4700
    0.4800    0.4900    0.5000    0.5100    0.5200    0.5300    0.5400    0.5500
    0.5600    0.5700    0.5800    0.5900    0.6000    0.6100    0.6200    0.6300
    0.6400    0.6500    0.6600    0.6700    0.6800    0.6900    0.7000    0.7100
    0.7200    0.7300    0.7400    0.7500    0.7600    0.7700    0.7800    0.7900
    0.8000    0.8100    0.8200    0.8300    0.8400    0.8500    0.8600    0.8700
    0.8800    0.8900    0.9000    0.9100    0.9200    0.9300    0.9400    0.9500
    0.9600    0.9700    0.9800    0.9900    1.0000    1.0100    1.0200    1.0300
    1.0400    1.0500    1.0600    1.0700    1.0800    1.0900    1.1000    1.1100
    1.1200    1.1300    1.1400    1.1500    1.1600    1.1700    1.1800    1.1900
    1.2000    1.2100    1.2200    1.2300    1.2400    1.2500    1.2600    1.2700
    1.2800    1.2900    1.3000    1.3100    1.3200    1.3300    1.3400    1.3500
    1.3600    1.3700    1.3800    1.3900    1.4000    1.4100    1.4200    1.4300
    1.4400    1.4500    1.4600    1.4700    1.4800    1.4900    1.5000    1.5100
    1.5200    1.5300    1.5400    1.5500    1.5600    1.5700    1.5800    1.5900
    1.6000    1.6100    1.6200    1.6300    1.6400    1.6500    1.6600    1.6700
    1.6800    1.6900    1.7000    1.7100    1.7200    1.7300    1.7400    1.7500
    1.7600    1.7700    1.7800    1.7900    1.8000    1.8100    1.8200    1.8300
    1.8400    1.8500    1.8600    1.8700    1.8800    1.8900    1.9000    1.9100
    1.9200    1.9300    1.9400    1.9500    1.9600    1.9700    1.9800    1.9900
    2.0000    2.0100    2.0200    2.0300    2.0400    2.0500    2.0600    2.0700
    2.0800    2.0900    2.1000    2.1100    2.1200    2.1300    2.1400    2.1500
    2.1600    2.1700    2.1800    2.1900    2.2000    2.2100    2.2200    2.2300
    2.2400    2.2500    2.2600    2.2700    2.2800    2.2900    2.3000    2.3100
    2.3200    2.3300    2.3400    2.3500    2.3600    2.3700    2.3800    2.3900
    2.4000    2.4100    2.4200    2.4300    2.4400    2.4500    2.4600    2.4700
    2.4800    2.4900    2.5000    2.5100    2.5200    2.5300    2.5400    2.5500
    2.5600    2.5700    2.5800    2.5900    2.6000    2.6100    2.6200    2.6300
    2.6400    2.6500    2.6600    2.6700    2.6800    2.6900    2.7000    2.7100
    2.7200    2.7300    2.7400    2.7500    2.7600    2.7700    2.7800    2.7900
    2.8000    2.8100    2.8200    2.8300    2.8400    2.8500    2.8600    2.8700
    2.8800    2.8900    2.9000    2.9100    2.9200    2.9300    2.9400    2.9500
    2.9600    2.9700    2.9800    2.9900    3.0000    3.0100    3.0200    3.0300
    3.0400    3.0500    3.0600    3.0700    3.0800    3.0900    3.1000    3.1100
    3.1200    3.1300    3.1400    3.1500    3.1600    3.1700    3.1800    3.1900
    3.2000    3.2100    3.2200    3.2300    3.2400    3.2500    3.2600    3.2700
    3.2800    3.2900    3.3000    3.3100    3.3200    3.3300    3.3400    3.3500
    3.3600    3.3700    3.3800    3.3900    3.4000    3.4100    3.4200    3.4300
    3.4400    3.4500    3.4600    3.4700    3.4800    3.4900    3.5000    3.5100
    3.5200    3.5300    3.5400    3.5500    3.5600    3.5700    3.5800    3.5900
    3.6000    3.6100    3.6200    3.6300    3.6400    3.6500    3.6600    3.6700
    3.6800    3.6900    3.7000    3.7100    3.7200    3.7300    3.7400    3.7500
    3.7600    3.7700    3.7800    3.7900    3.8000    3.8100    3.8200    3.8300
    3.8400    3.8500    3.8600    3.8700    3.8800    3.8900    3.9000    3.9100
    3.9200    3.9300    3.9400    3.9500    3.9600    3.9700    3.9800    3.9900
    4.0000    4.0100    4.0200    4.0300    4.0400    4.0500    4.0600    4.0700
    4.0800    4.0900    4.1000    4.1100    4.1200    4.1300    4.1400    4.1500
    4.1600    4.1700    4.1800    4.1900    4.2000    4.2100    4.2200    4.2300
    4.2400    4.2500    4.2600    4.2700    4.2800    4.2900    4.3000    4.3100
    4.3200    4.3300    4.3400    4.3500    4.3600    4.3700    4.3800    4.3900
    4.4000    4.4100    4.4200    4.4300    4.4400    4.4500    4.4600    4.4700
    4.4800    4.4900    4.5000    4.5100    4.5200    4.5300    4.5400    4.5500
    4.5600    4.5700    4.5800    4.5900    4.6000    4.6100    4.6200    4.6300
    4.6400    4.6500    4.6600    4.6700    4.6800    4.6900    4.7000    4.7100
    4.7200    4.7300    4.7400    4.7500    4.7600    4.7700    4.7800    4.7900
    4.8000    4.8100    4.8200    4.8300    4.8400    4.8500    4.8600    4.8700
    4.8800    4.8900    4.9000    4.9100    4.9200    4.9300    4.9400    4.9500
    4.9600    4.9700    4.9800    4.9900    5.0000    5.0100    5.0200    5.0300
    5.0400    5.0500    5.0600    5.0700    5.0800    5.0900    5.1000    5.1100
    5.1200    5.1300    5.1400    5.1500    5.1600    5.1700    5.1800    5.1900
    5.2000    5.2100    5.2200    5.2300    5.2400    5.2500    5.2600    5.2700
    5.2800    5.2900    5.3000    5.3100    5.3200    5.3300    5.3400    5.3500
    5.3600    5.3700    5.3800    5.3900    5.4000    5.4100    5.4200    5.4300
    5.4400    5.4500    5.4600    5.4700    5.4800    5.4900    5.5000    5.5100
    5.5200    5.5300    5.5400    5.5500    5.5600    5.5700    5.5800    5.5900
    5.6000    5.6100    5.6200    5.6300    5.6400    5.6500    5.6600    5.6700
    5.6800    5.6900    5.7000    5.7100    5.7200    5.7300    5.7400    5.7500
    5.7600    5.7700    5.7800    5.7900    5.8000    5.8100    5.8200    5.8300
    5.8400    5.8500    5.8600    5.8700    5.8800    5.8900    5.9000    5.9100
    5.9200    5.9300    5.9400    5.9500    5.9600    5.9700    5.9800    5.9900
    6.0000    6.0100    6.0200    6.0300    6.0400    6.0500    6.0600    6.0700
    6.0800    6.0900    6.1000    6.1100    6.1200    6.1300    6.1400    6.1500
    6.1600    6.1700    6.1800    6.1900    6.2000    6.2100    6.2200    6.2300
    6.2400    6.2500    6.2600    6.2700    6.2800    6.2900    6.3000    6.3100
    6.3200    6.3300    6.3400    6.3500    6.3600    6.3700    6.3800    6.3900
    6.4000    6.4100    6.4200    6.4300    6.4400    6.4500    6.4600    6.4700
    6.4800    6.4900    6.5000    6.5100    6.5200    6.5300    6.5400    6.5500
    6.5600    6.5700    6.5800    6.5900    6.6000    6.6100    6.6200    6.6300
    6.6400    6.6500    6.6600    6.6700    6.6800    6.6900    6.7000    6.7100
    6.7200    6.7300    6.7400    6.7500    6.7600    6.7700    6.7800    6.7900
    6.8000    6.8100    6.8200    6.8300    6.8400    6.8500    6.8600    6.8700
    6.8800    6.8900    6.9000    6.9100    6.9200    6.9300    6.9400    6.9500
    6.9600    6.9700    6.9800    6.9900    7.0000    7.0100    7.0200    7.0300
    7.0400    7.0500    7.0600    7.0700    7.0800    7.0900    7.1000    7.1100
    7.1200    7.1300    7.1400    7.1500    7.1600    7.1700    7.1800    7.1900
    7.2000    7.2100    7.2200    7.2300    7.2400    7.2500    7.2600    7.2700
    7.2800    7.2900    7.3000    7.3100    7.3200    7.3300    7.3400    7.3500
    7.3600    7.3700    7.3800    7.3900    7.4000    7.4100    7.4200    7.4300
    7.4400    7.4500    7.4600    7.4700    7.4800    7.4900    7.5000    7.5100
    7.5200    7.5300    7.5400    7.5500    7.5600    7.5700    7.5800    7.5900
    7.6000    7.6100    7.6200    7.6300    7.6400    7.6500    7.6600    7.6700
    7.6800    7.6900    7.7000    7.7100    7.7200    7.7300    7.7400    7.7500
    7.7600    7.7700    7.7800    7.7900    7.8000    7.8100    7.8200    7.8300
    7.8400    7.8500    7.8600    7.8700    7.8800    7.8900    7.9000    7.9100
    7.9200    7.9300    7.9400    7.9500    7.9600    7.9700    7.9800    7.9900
    8.0000    8.0100    8.0200    8.0300    8.0400    8.0500    8.0600    8.0700
    8.0800    8.0900    8.1000    8.1100    8.1200    8.1300    8.1400    8.1500
    8.1600    8.1700    8.1800    8.1900    8.2000    8.2100    8.2200    8.2300
    8.2400    8.2500    8.2600    8.2700    8.2800    8.2900    8.3000    8.3100
    8.3200    8.3300    8.3400    8.3500    8.3600    8.3700    8.3800    8.3900
    8.4000    8.4100    8.4200    8.4300    8.4400    8.4500    8.4600    8.4700
    8.4800    8.4900    8.5000    8.5100    8.5200    8.5300    8.5400    8.5500
    8.5600    8.5700    8.5800    8.5900    8.6000    8.6100    8.6200    8.6300
    8.6400    8.6500    8.6600    8.6700    8.6800    8.6900    8.7000    8.7100
    8.7200    8.7300    8.7400    8.7500    8.7600    8.7700    8.7800    8.7900
    8.8000    8.8100    8.8200    8.8300    8.8400    8.8500    8.8600    8.8700
    8.8800    8.8900    8.9000    8.9100    8.9200    8.9300    8.9400    8.9500
    8.9600    8.9700    8.9800    8.9900    9.0000    9.0100    9.0200    9.0300
    9.0400    9.0500    9.0600    9.0700    9.0800    9.0900    9.1000    9.1100
    9.1200    9.1300    9.1400    9.1500    9.1600    9.1700    9.1800    9.1900
    9.2000    9.2100    9.2200    9.2300    9.2400    9.2500    9.2600    9.2700
    9.2800    9.2900    9.3000    9.3100    9.3200    9.3300    9.3400    9.3500
    9.3600    9.3700
   </PP_R>
   <PP_RAB type="real"  size=" 938" columns="8">
    0.0100    0.0100    0.0100    0.0100    0.0100    0.0100    0.0100    0.0100
    0.0100    0.0100    0.0100    0.0100    0.0100    0.0100    0.0100    0.0100
    0.0100    0.0100    0.0100    0.0100    0.0100    0.0100    0.0100    0.0100
    0.0100    0.0100    0.0100    0.0100    0.0100    0.0100    0.0100    0.0100
    0.0100    0.0100    0.0100    0.0100    0.0100    0.0100    0.0100    0.0100
    0.0100    0.0100    0.0100    0.0100    0.0100    0.0100    0.0100    0.0100
    0.0100    0.0100    0.0100    0.0100    0.0100    0.0100    0.0100    0.0100
    0.0100    0.0100    0.0100    0.0100    0.0100    0.0100    0.0100    0.0100
    0.0100    0.0100    0.0100    0.0100    0.0100    0.0100    0.0100    0.0100
    0.0100    0.0100    0.0100    0.0100    0.0100    0.0100    0.0100    0.0100
    0.0100    0.0100    0.0100    0.0100    0.0100    0.0100    0.0100    0.0100
    0.0100    0.0100    0.0100    0.0100    0.0100    0.0100    0.0100    0.0100
    0.0100    0.0100    0.0100    0.0100    0.0100    0.0100    0.0100    0.0100
    0.0100    0.0100    0.0100    0.0100    0.0100    0.0100    0.0100    0.0100
    0.0100    0.0100    0.0100    0.0100    0.0100    0.0100    0.0100    0.0100
    0.0100    0.0100    0.0100    0.0100    0.0100    0.0100    0.0100    0.0100
    0.0100    0.0100    0.0100    0.0100    0.0100    0.0100    0.0100    0.0100
    0.0100    0.0100    0.0100    0.0100    0.0100    0.0100    0.0100    0.0100
    0.0100    0.0100    0.0100    0.0100    0.0100    0.0100    0.0100    0.0100
    0.0100    0.0100    0.0100    0.0100    0.0100    0.0100    0.0100    0.0100
    0.0100    0.0100    0.0100    0.0100    0.0100    0.0100    0.0100    0.0100
    0.0100    0.0100    0.0100    0.0100    0.0100    0.0100    0.0100    0.0100
    0.0100    0.0100    0.0100    0.0100    0.0100    0.0100    0.0100    0.0100
    0.0100    0.0100    0.0100    0.0100    0.0100    0.0100    0.0100    0.0100
    0.0100    0.0100    0.0100    0.0100    0.0100    0.0100    0.0100    0.0100
    0.0100    0.0100    0.0100    0.0100    0.0100    0.0100    0.0100    0.0100
    0.0100    0.0100    0.0100    0.0100    0.0100    0.0100    0.0100    0.0100
    0.0100    0.0100    0.0100    0.0100    0.0100    0.0100    0.0100    0.0100
    0.0100    0.0100    0.0100    0.0100    0.0100    0.0100    0.0100    0.0100
    0.0100    0.0100    0.0100    0.0100    0.0100    0.0100    0.0100    0.0100
    0.0100    0.0100    0.0100    0.0100    0.0100    0.0100    0.0100    0.0100
    0.0100    0.0100    0.0100    0.0100    0.0100    0.0100    0.0100    0.0100
    0.0100    0.0100    0.0100    0.0100    0.0100    0.0100    0.0100    0.0100
    0.0100    0.0100    0.0100    0.0100    0.0100    0.0100    0.0100    0.0100
    0.0100    0.0100    0.0100    0.0100    0.0100    0.0100    0.0100    0.0100
    0.0100    0.0100    0.0100    0.0100    0.0100    0.0100    0.0100    0.0100
    0.0100    0.0100    0.0100    0.0100    0.0100    0.0100    0.0100    0.0100
    0.0100    0.0100    0.0100    0.0100    0.0100    0.0100    0.0100    0.0100
    0.0100    0.0100    0.0100    0.0100    0.0100    0.0100    0.0100    0.0100
    0.0100    0.0100    0.0100    0.0100    0.0100    0.0100    0.0100    0.0100
    0.0100    0.0100    0.0100    0.0100    0.0100    0.0100    0.0100    0.0100
    0.0100    0.0100    0.0100    0.0100    0.0100    0.0100    0.0100    0.0100
    0.0100    0.0100    0.0100    0.0100    0.0100    0.0100    0.0100    0.0100
    0.0100    0.0100    0.0100    0.0100    0.0100    0.0100    0.0100    0.0100
    0.0100    0.0100    0.0100    0.0100    0.0100    0.0100    0.0100    0.0100
    0.0100    0.0100    0.0100    0.0100    0.0100    0.0100    0.0100    0.0100
    0.0100    0.0100    0.0100    0.0100    0.0100    0.0100    0.0100    0.0100
    0.0100    0.0100    0.0100    0.0100    0.0100    0.0100    0.0100    0.0100
    0.0100    0.0100    0.0100    0.0100    0.0100    0.0100    0.0100    0.0100
    0.0100    0.0100    0.0100    0.0100    0.0100    0.0100    0.0100    0.0100
    0.0100    0.0100    0.0100    0.0100    0.0100    0.0100    0.0100    0.0100
    0.0100    0.0100    0.0100    0.0100    0.0100    0.0100    0.0100    0.0100
    0.0100    0.0100    0.0100    0.0100    0.0100    0.0100    0.0100    0.0100
    0.0100    0.0100    0.0100    0.0100    0.0100    0.0100    0.0100    0.0100
    0.0100    0.0100    0.0100    0.0100    0.0100    0.0100    0.0100    0.0100
    0.0100    0.0100    0.0100    0.0100    0.0100    0.0100    0.0100    0.0100
    0.0100    0.0100    0.0100    0.0100    0.0100    0.0100    0.0100    0.0100
    0.0100    0.0100    0.0100    0.0100    0.0100    0.0100    0.0100    0.0100
    0.0100    0.0100    0.0100    0.0100    0.0100    0.0100    0.0100    0.0100
    0.0100    0.0100    0.0100    0.0100    0.0100    0.0100    0.0100    0.0100
    0.0100    0.0100    0.0100    0.0100    0.0100    0.0100    0.0100    0.0100
    0.0100    0.0100    0.0100    0.0100    0.0100    0.0100    0.0100    0.0100
    0.0100    0.0100    0.0100    0.0100    0.0100    0.0100    0.0100    0.0100
    0.0100    0.0100    0.0100    0.0100    0.0100    0.0100    0.0100    0.0100
    0.0100    0.0100    0.0100    0.0100    0.0100    0.0100    0.0100    0.0100
    0.0100    0.0100    0.0100    0.0100    0.0100    0.0100    0.0100    0.0100
    0.0100    0.0100    0.0100    0.0100    0.0100    0.0100    0.0100    0.0100
    0.0100    0.0100    0.0100    0.0100    0.0100    0.0100    0.0100    0.0100
    0.0100    0.0100    0.0100    0.0100    0.0100    0.0100    0.0100    0.0100
    0.0100    0.0100    0.0100    0.0100    0.0100    0.0100    0.0100    0.0100
    0.0100    0.0100    0.0100    0.0100    0.0100    0.0100    0.0100    0.0100
    0.0100    0.0100    0.0100    0.0100    0.0100    0.0100    0.0100    0.0100
    0.0100    0.0100    0.0100    0.0100    0.0100    0.0100    0.0100    0.0100
    0.0100    0.0100    0.0100    0.0100    0.0100    0.0100    0.0100    0.0100
    0.0100    0.0100    0.0100    0.0100    0.0100    0.0100    0.0100    0.0100
    0.0100    0.0100    0.0100    0.0100    0.0100    0.0100    0.0100    0.0100
    0.0100    0.0100    0.0100    0.0100    0.0100    0.0100    0.0100    0.0100
    0.0100    0.0100    0.0100    0.0100    0.0100    0.0100    0.0100    0.0100
    0.0100    0.0100    0.0100    0.0100    0.0100    0.0100    0.0100    0.0100
    0.0100    0.0100    0.0100    0.0100    0.0100    0.0100    0.0100    0.0100
    0.0100    0.0100    0.0100    0.0100    0.0100    0.0100    0.0100    0.0100
    0.0100    0.0100    0.0100    0.0100    0.0100    0.0100    0.0100    0.0100
    0.0100    0.0100    0.0100    0.0100    0.0100    0.0100    0.0100    0.0100
    0.0100    0.0100    0.0100    0.0100    0.0100    0.0100    0.0100    0.0100
    0.0100    0.0100    0.0100    0.0100    0.0100    0.0100    0.0100    0.0100
    0.0100    0.0100    0.0100    0.0100    0.0100    0.0100    0.0100    0.0100
    0.0100    0.0100    0.0100    0.0100    0.0100    0.0100    0.0100    0.0100
    0.0100    0.0100    0.0100    0.0100    0.0100    0.0100    0.0100    0.0100
    0.0100    0.0100    0.0100    0.0100    0.0100    0.0100    0.0100    0.0100
    0.0100    0.0100    0.0100    0.0100    0.0100    0.0100    0.0100    0.0100
    0.0100    0.0100    0.0100    0.0100    0.0100    0.0100    0.0100    0.0100
    0.0100    0.0100    0.0100    0.0100    0.0100    0.0100    0.0100    0.0100
    0.0100    0.0100    0.0100    0.0100    0.0100    0.0100    0.0100    0.0100
    0.0100    0.0100    0.0100    0.0100    0.0100    0.0100    0.0100    0.0100
    0.0100    0.0100    0.0100    0.0100    0.0100    0.0100    0.0100    0.0100
    0.0100    0.0100    0.0100    0.0100    0.0100    0.0100    0.0100    0.0100
    0.0100    0.0100    0.0100    0.0100    0.0100    0.0100    0.0100    0.0100
    0.0100    0.0100    0.0100    0.0100    0.0100    0.0100    0.0100    0.0100
    0.0100    0.0100    0.0100    0.0100    0.0100    0.0100    0.0100    0.0100
    0.0100    0.0100    0.0100    0.0100    0.0100    0.0100    0.0100    0.0100
    0.0100    0.0100    0.0100    0.0100    0.0100    0.0100    0.0100    0.0100
    0.0100    0.0100    0.0100    0.0100    0.0100    0.0100    0.0100    0.0100
    0.0100    0.0100    0.0100    0.0100    0.0100    0.0100    0.0100    0.0100
    0.0100    0.0100    0.0100    0.0100    0.0100    0.0100    0.0100    0.0100
    0.0100    0.0100    0.0100    0.0100    0.0100    0.0100    0.0100    0.0100
    0.0100    0.0100    0.0100    0.0100    0.0100    0.0100    0.0100    0.0100
    0.0100    0.0100    0.0100    0.0100    0.0100    0.0100    0.0100    0.0100
    0.0100    0.0100    0.0100    0.0100    0.0100    0.0100    0.0100    0.0100
    0.0100    0.0100    0.0100    0.0100    0.0100    0.0100    0.0100    0.0100
    0.0100    0.0100    0.0100    0.0100    0.0100    0.0100    0.0100    0.0100
    0.0100    0.0100    0.0100    0.0100    0.0100    0.0100    0.0100    0.0100
    0.0100    0.0100    0.0100    0.0100    0.0100    0.0100    0.0100    0.0100
    0.0100    0.0100    0.0100    0.0100    0.0100    0.0100    0.0100    0.0100
    0.0100    0.0100    0.0100    0.0100    0.0100    0.0100    0.0100    0.0100
    0.0100    0.0100    0.0100    0.0100    0.0100    0.0100    0.0100    0.0100
    0.0100    0.0100    0.0100    0.0100    0.0100    0.0100    0.0100    0.0100
    0.0100    0.0100    0.0100    0.0100    0.0100    0.0100    0.0100    0.0100
    0.0100    0.0100
   </PP_RAB>
 </PP_MESH>
  <PP_LOCAL type="real"  size=" 938" columns="4">
   -2.1477897340E+01   -2.1477168528E+01   -2.1474983330E+01   -2.1471345471E+01
   -2.1466261094E+01   -2.1459738678E+01   -2.1451788918E+01   -2.1442424573E+01
   -2.1431660296E+01   -2.1419512438E+01   -2.1405998828E+01   -2.1391138554E+01
   -2.1374951723E+01   -2.1357459220E+01   -2.1338682475E+01   -2.1318643221E+01
   -2.1297363268E+01   -2.1274864292E+01   -2.1251167621E+01   -2.1226294058E+01
   -2.1200263702E+01   -2.1173095798E+01   -2.1144808603E+01   -2.1115419265E+01
   -2.1084943730E+01   -2.1053396657E+01   -2.1020791354E+01   -2.0987139731E+01
   -2.0952452257E+01   -2.0916737945E+01   -2.0880004335E+01   -2.0842257493E+01
   -2.0803502016E+01   -2.0763741045E+01   -2.0722976286E+01   -2.0681208033E+01
   -2.0638435197E+01   -2.0594655336E+01   -2.0549864696E+01   -2.0504058245E+01
   -2.0457229716E+01   -2.0409371652E+01   -2.0360475450E+01   -2.0310531415E+01
   -2.0259528809E+01   -2.0207455908E+01   -2.0154300061E+01   -2.0100047749E+01
   -2.0044684653E+01   -1.9988195718E+01   -1.9930565225E+01   -1.9871776855E+01
   -1.9811813767E+01   -1.9750658666E+01   -1.9688293873E+01   -1.9624701393E+01
   -1.9559862986E+01   -1.9493760232E+01   -1.9426374597E+01   -1.9357687503E+01
   -1.9287680395E+01   -1.9216334827E+01   -1.9143632550E+01   -1.9069555623E+01
   -1.8994086555E+01   -1.8917208468E+01   -1.8838905314E+01   -1.8759162134E+01
   -1.8677965370E+01   -1.8595303242E+01   -1.8511166178E+01   -1.8425547307E+01
   -1.8338442989E+01   -1.8249853393E+01   -1.8159783080E+01   -1.8068241578E+01
   -1.7975243920E+01   -1.7880811112E+01   -1.7784970494E+01   -1.7687755969E+01
   -1.7589208077E+01   -1.7489373886E+01   -1.7388306697E+01   -1.7286065571E+01
   -1.7182714677E+01   -1.7078322509E+01   -1.6972960991E+01   -1.6866704511E+01
   -1.6759628946E+01   -1.6651810713E+01   -1.6543325879E+01   -1.6434249391E+01
   -1.6324654419E+01   -1.6214611859E+01   -1.6104189971E+01   -1.5993454180E+01
   -1.5882466991E+01   -1.5771288038E+01   -1.5659974210E+01   -1.5548579861E+01
   -1.5437157056E+01   -1.5325755852E+01   -1.5214424584E+01   -1.5103210136E+01
   -1.4992158208E+01   -1.4881313535E+01   -1.4770720087E+01   -1.4660421223E+01
   -1.4550459806E+01   -1.4440878281E+01   -1.4331718711E+01   -1.4223022785E+01
   -1.4114831786E+01   -1.4007186539E+01   -1.3900127327E+01   -1.3793693796E+01
   -1.3687924840E+01   -1.3582858474E+01   -1.3478531708E+01   -1.3374980409E+01
   -1.3272239173E+01   -1.3170341191E+01   -1.3069318134E+01   -1.2969200035E+01
   -1.2870015193E+01   -1.2771790076E+01   -1.2674549254E+01   -1.2578315328E+01
   -1.2483108883E+01   -1.2388948451E+01   -1.2295850486E+01   -1.2203829351E+01
   -1.2112897314E+01   -1.2023064556E+01   -1.1934339182E+01   -1.1846727247E+01
   -1.1760232781E+01   -1.1674857820E+01   -1.1590602441E+01   -1.1507464800E+01
   -1.1425441168E+01   -1.1344525976E+01   -1.1264711847E+01   -1.1185989639E+01
   -1.1108348478E+01   -1.1031775795E+01   -1.0956257357E+01   -1.0881777302E+01
   -1.0808318146E+01   -1.0735860860E+01   -1.0664384843E+01   -1.0593867819E+01
   -1.0524286349E+01   -1.0455616618E+01   -1.0387834951E+01   -1.0320918716E+01
   -1.0254849132E+01   -1.0189611911E+01   -1.0125198388E+01   -1.0061602403E+01
   -9.9988115628E+00   -9.9368086625E+00   -9.8755747660E+00   -9.8150909033E+00
   -9.7553429781E+00   -9.6963187173E+00   -9.6380034732E+00   -9.5803826521E+00
   -9.5234431207E+00   -9.4671722159E+00   -9.4115574862E+00   -9.3565869134E+00
   -9.3022489119E+00   -9.2485322788E+00   -9.1954261786E+00   -9.1429201285E+00
   -9.0910039811E+00   -9.0396679071E+00   -8.9889023773E+00   -8.9386981460E+00
   -8.8890462333E+00   -8.8399379088E+00   -8.7913646751E+00   -8.7433182522E+00
   -8.6957905625E+00   -8.6487737164E+00   -8.6022599988E+00   -8.5562418564E+00
   -8.5107118860E+00   -8.4656628238E+00   -8.4210875354E+00   -8.3769790070E+00
   -8.3333303378E+00   -8.2901347328E+00   -8.2473854975E+00   -8.2050760325E+00
   -8.1631998298E+00   -8.1217504696E+00   -8.0807216183E+00   -8.0401070266E+00
   -7.9999005287E+00   -7.9600960427E+00   -7.9206875698E+00   -7.8816691962E+00
   -7.8430350932E+00   -7.8047795195E+00   -7.7668968225E+00   -7.7293814399E+00
   -7.6922279017E+00   -7.6554308318E+00   -7.6189849502E+00   -7.5828850737E+00
   -7.5471261181E+00   -7.5117030988E+00   -7.4766111318E+00   -7.4418454341E+00
   -7.4074013237E+00   -7.3732742199E+00   -7.3394596419E+00   -7.3059532085E+00
   -7.2727506364E+00   -7.2398477387E+00   -7.2072404225E+00   -7.1749246872E+00
   -7.1428966213E+00   -7.1111523997E+00   -7.0796882807E+00   -7.0485006030E+00
   -7.0175857818E+00   -6.9869403058E+00   -6.9565607336E+00   -6.9264436903E+00
   -6.8965858639E+00   -6.8669840022E+00   -6.8376349097E+00   -6.8085354440E+00
   -6.7796825138E+00   -6.7510730752E+00   -6.7227041306E+00   -6.6945727252E+00
   -6.6666759459E+00   -6.6390109198E+00   -6.6115748119E+00   -6.5843648249E+00
   -6.5573781980E+00   -6.5306122060E+00   -6.5040641593E+00   -6.4777314034E+00
   -6.4516113188E+00   -6.4257013214E+00   -6.3999988622E+00   -6.3745014281E+00
   -6.3492065421E+00   -6.3241117633E+00   -6.2992146880E+00   -6.2745129497E+00
   -6.2500042191E+00   -6.2256862050E+00   -6.2015566543E+00   -6.1776133516E+00
   -6.1538541199E+00   -6.1302768200E+00   -6.1068793503E+00   -6.0836596462E+00
   -6.0606156800E+00   -6.0377454600E+00   -6.0150470293E+00   -5.9925184655E+00
   -5.9701578742E+00   -5.9479634021E+00   -5.9259332354E+00   -5.9040655964E+00
   -5.8823587242E+00   -5.8608107740E+00   -5.8394199981E+00   -5.8181845817E+00
   -5.7971032411E+00   -5.7761745627E+00   -5.7553972646E+00   -5.7347695253E+00
   -5.7142894202E+00   -5.6939549970E+00   -5.6737644545E+00   -5.6537163068E+00
   -5.6338090606E+00   -5.6140413188E+00   -5.5944116689E+00   -5.5749187516E+00
   -5.5555612482E+00   -5.5363377740E+00   -5.5172469192E+00   -5.4982872876E+00
   -5.4794574867E+00   -5.4607562096E+00   -5.4421821461E+00   -5.4237340125E+00
   -5.4054105315E+00   -5.3872104417E+00   -5.3691325007E+00   -5.3511754824E+00
   -5.3333381780E+00   -5.3156193942E+00   -5.2980179539E+00   -5.2805326951E+00
   -5.2631624713E+00   -5.2459061511E+00   -5.2287626177E+00   -5.2117307690E+00
   -5.1948095173E+00   -5.1779977886E+00   -5.1612945232E+00   -5.1446986747E+00
   -5.1282092104E+00   -5.1118251105E+00   -5.0955453685E+00   -5.0793689904E+00
   -5.0632949949E+00   -5.0473224132E+00   -5.0314502885E+00   -5.0156776760E+00
   -5.0000036428E+00   -4.9844272677E+00   -4.9689476408E+00   -4.9535638635E+00
   -4.9382750484E+00   -4.9230803187E+00   -4.9079788088E+00   -4.8929696634E+00
   -4.8780520377E+00   -4.8632250972E+00   -4.8484880175E+00   -4.8338399841E+00
   -4.8192801925E+00   -4.8048078475E+00   -4.7904221639E+00   -4.7761223655E+00
   -4.7619076855E+00   -4.7477773661E+00   -4.7337306586E+00   -4.7197668232E+00
   -4.7058851284E+00   -4.6920848518E+00   -4.6783652791E+00   -4.6647257044E+00
   -4.6511654301E+00   -4.6376837667E+00   -4.6242800324E+00   -4.6109535537E+00
   -4.5977036645E+00   -4.5845297063E+00   -4.5714310285E+00   -4.5584069875E+00
   -4.5454569473E+00   -4.5325802789E+00   -4.5197763606E+00   -4.5070445776E+00
   -4.4943843219E+00   -4.4817949925E+00   -4.4692759951E+00   -4.4568267419E+00
   -4.4444466517E+00   -4.4321351498E+00   -4.4198916677E+00   -4.4077156432E+00
   -4.3956065205E+00   -4.3835637496E+00   -4.3715867866E+00   -4.3596750937E+00
   -4.3478281386E+00   -4.3360453952E+00   -4.3243263427E+00   -4.3126704661E+00
   -4.3010772560E+00   -4.2895462082E+00   -4.2780768242E+00   -4.2666686107E+00
   -4.2553210796E+00   -4.2440337480E+00   -4.2328061381E+00   -4.2216377772E+00
   -4.2105281975E+00   -4.1994769362E+00   -4.1884835352E+00   -4.1775475414E+00
   -4.1666685063E+00   -4.1558459860E+00   -4.1450795412E+00   -4.1343687374E+00
   -4.1237131441E+00   -4.1131123358E+00   -4.1025658908E+00   -4.0920733922E+00
   -4.0816344270E+00   -4.0712485867E+00   -4.0609154666E+00   -4.0506346664E+00
   -4.0404057897E+00   -4.0302284441E+00   -4.0201022412E+00   -4.0100267965E+00
   -4.0000017292E+00   -3.9900266625E+00   -3.9801012232E+00   -3.9702250419E+00
   -3.9603977529E+00   -3.9506189938E+00   -3.9408884062E+00   -3.9312056349E+00
   -3.9215703284E+00   -3.9119821385E+00   -3.9024407204E+00   -3.8929457328E+00
   -3.8834968375E+00   -3.8740936997E+00   -3.8647359878E+00   -3.8554233736E+00
   -3.8461555316E+00   -3.8369321398E+00   -3.8277528793E+00   -3.8186174339E+00