<UPF version="2.0.1">
  <PP_INFO>

 This pseudopotential file has been produced using the code
 ONCVPSP  (Optimized Norm-Conservinng Vanderbilt PSeudopotential)
 fully-relativistic version 3.3.0 08/16/2017 by D. R. Hamann
 The code is available through a link at URL www.mat-simresearch.com.
 Documentation with the package provides a full discription of the
 input data below.


 While it is not required under the terms of the GNU GPL, it is
 suggested that you cite D. R. Hamann, Phys. Rev. B 88, 085117 (2013)
 in any publication using these pseudopotentials.

    <PP_INPUTFILE>
# ATOM AND REFERENCE CONFIGURATION
# atsym  z   nc   nv     iexc    psfile
  Ne 10.00    1    2       4      upf
#
#   n    l    f        energy (Ha)
    1    0    2.00
    2    0    2.00
    2    1    6.00
#
# PSEUDOPOTENTIAL AND OPTIMIZATION
# lmax
    1
#
#   l,   rc,     ep,   ncon, nbas, qcut
    0   1.30000  -1.33781    4    7   8.00000
    1   1.70000  -0.48870    4    7   8.00000
#
# LOCAL POTENTIAL
# lloc, lpopt,  rc(5),   dvloc0
    4    5   1.30000      0.00000
#
# VANDERBILT-KLEINMAN-BYLANDER PROJECTORs
# l, nproj, debl
    0    2   1.50000
    1    2   1.49873
#
# MODEL CORE CHARGE
# icmod, fcfact, rcfact
    0   0.00000   0.00000
#
# LOG DERIVATIVE ANALYSIS
# epsh1, epsh2, depsh
  -12.00   12.00    0.02
#
# OUTPUT GRID
# rlmax, drl
    4.00    0.01
#
# TEST CONFIGURATIONS
# ncnf
    0
# nvcnf
#   n    l    f
    </PP_INPUTFILE>
  </PP_INFO>
  <!--                               -->
  <!-- END OF HUMAN READABLE SECTION -->
  <!--                               -->
    <PP_HEADER
       generated="Generated using ONCVPSP code by D. R. Hamann"
       author="anonymous"
       date="170818"
       comment=""
       element="Ne"
       pseudo_type="NC"
       relativistic="full"
       is_ultrasoft="F"
       is_paw="F"
       is_coulomb="F"
       has_so="T"
       has_wfc="F"
       has_gipaw="F"
       core_correction="F"
       functional="PBE"
       z_valence="    8.00"
       total_psenergy="  -6.67102774045E+01"
       rho_cutoff="   7.57000000000E+00"
       l_max="1"
       l_local="-1"
       mesh_size="   758"
       number_of_wfc="3"
       number_of_proj="6"/>
 <PP_MESH>
   <PP_R type="real"  size=" 758" columns="8">
    0.0000    0.0100    0.0200    0.0300    0.0400    0.0500    0.0600    0.0700
    0.0800    0.0900    0.1000    0.1100    0.1200    0.1300    0.1400    0.1500
    0.1600    0.1700    0.1800    0.1900    0.2000    0.2100    0.2200    0.2300
    0.2400    0.2500    0.2600    0.2700    0.2800    0.2900    0.3000    0.3100
    0.3200    0.3300    0.3400    0.3500    0.3600    0.3700    0.3800    0.3900
    0.4000    0.4100    0.4200    0.4300    0.4400    0.4500    0.4600    0.4700
    0.4800    0.4900    0.5000    0.5100    0.5200    0.5300    0.5400    0.5500
    0.5600    0.5700    0.5800    0.5900    0.6000    0.6100    0.6200    0.6300
    0.6400    0.6500    0.6600    0.6700    0.6800    0.6900    0.7000    0.7100
    0.7200    0.7300    0.7400    0.7500    0.7600    0.7700    0.7800    0.7900
    0.8000    0.8100    0.8200    0.8300    0.8400    0.8500    0.8600    0.8700
    0.8800    0.8900    0.9000    0.9100    0.9200    0.9300    0.9400    0.9500
    0.9600    0.9700    0.9800    0.9900    1.0000    1.0100    1.0200    1.0300
    1.0400    1.0500    1.0600    1.0700    1.0800    1.0900    1.1000    1.1100
    1.1200    1.1300    1.1400    1.1500    1.1600    1.1700    1.1800    1.1900
    1.2000    1.2100    1.2200    1.2300    1.2400    1.2500    1.2600    1.2700
    1.2800    1.2900    1.3000    1.3100    1.3200    1.3300    1.3400    1.3500
    1.3600    1.3700    1.3800    1.3900    1.4000    1.4100    1.4200    1.4300
    1.4400    1.4500    1.4600    1.4700    1.4800    1.4900    1.5000    1.5100
    1.5200    1.5300    1.5400    1.5500    1.5600    1.5700    1.5800    1.5900
    1.6000    1.6100    1.6200    1.6300    1.6400    1.6500    1.6600    1.6700
    1.6800    1.6900    1.7000    1.7100    1.7200    1.7300    1.7400    1.7500
    1.7600    1.7700    1.7800    1.7900    1.8000    1.8100    1.8200    1.8300
    1.8400    1.8500    1.8600    1.8700    1.8800    1.8900    1.9000    1.9100
    1.9200    1.9300    1.9400    1.9500    1.9600    1.9700    1.9800    1.9900
    2.0000    2.0100    2.0200    2.0300    2.0400    2.0500    2.0600    2.0700
    2.0800    2.0900    2.1000    2.1100    2.1200    2.1300    2.1400    2.1500
    2.1600    2.1700    2.1800    2.1900    2.2000    2.2100    2.2200    2.2300
    2.2400    2.2500    2.2600    2.2700    2.2800    2.2900    2.3000    2.3100
    2.3200    2.3300    2.3400    2.3500    2.3600    2.3700    2.3800    2.3900
    2.4000    2.4100    2.4200    2.4300    2.4400    2.4500    2.4600    2.4700
    2.4800    2.4900    2.5000    2.5100    2.5200    2.5300    2.5400    2.5500
    2.5600    2.5700    2.5800    2.5900    2.6000    2.6100    2.6200    2.6300
    2.6400    2.6500    2.6600    2.6700    2.6800    2.6900    2.7000    2.7100
    2.7200    2.7300    2.7400    2.7500    2.7600    2.7700    2.7800    2.7900
    2.8000    2.8100    2.8200    2.8300    2.8400    2.8500    2.8600    2.8700
    2.8800    2.8900    2.9000    2.9100    2.9200    2.9300    2.9400    2.9500
    2.9600    2.9700    2.9800    2.9900    3.0000    3.0100    3.0200    3.0300
    3.0400    3.0500    3.0600    3.0700    3.0800    3.0900    3.1000    3.1100
    3.1200    3.1300    3.1400    3.1500    3.1600    3.1700    3.1800    3.1900
    3.2000    3.2100    3.2200    3.2300    3.2400    3.2500    3.2600    3.2700
    3.2800    3.2900    3.3000    3.3100    3.3200    3.3300    3.3400    3.3500
    3.3600    3.3700    3.3800    3.3900    3.4000    3.4100    3.4200    3.4300
    3.4400    3.4500    3.4600    3.4700    3.4800    3.4900    3.5000    3.5100
    3.5200    3.5300    3.5400    3.5500    3.5600    3.5700    3.5800    3.5900
    3.6000    3.6100    3.6200    3.6300    3.6400    3.6500    3.6600    3.6700
    3.6800    3.6900    3.7000    3.7100    3.7200    3.7300    3.7400    3.7500
    3.7600    3.7700    3.7800    3.7900    3.8000    3.8100    3.8200    3.8300
    3.8400    3.8500    3.8600    3.8700    3.8800    3.8900    3.9000    3.9100
    3.9200    3.9300    3.9400    3.9500    3.9600    3.9700    3.9800    3.9900
    4.0000    4.0100    4.0200    4.0300    4.0400    4.0500    4.0600    4.0700
    4.0800    4.0900    4.1000    4.1100    4.1200    4.1300    4.1400    4.1500
    4.1600    4.1700    4.1800    4.1900    4.2000    4.2100    4.2200    4.2300
    4.2400    4.2500    4.2600    4.2700    4.2800    4.2900    4.3000    4.3100
    4.3200    4.3300    4.3400    4.3500    4.3600    4.3700    4.3800    4.3900
    4.4000    4.4100    4.4200    4.4300    4.4400    4.4500    4.4600    4.4700
    4.4800    4.4900    4.5000    4.5100    4.5200    4.5300    4.5400    4.5500
    4.5600    4.5700    4.5800    4.5900    4.6000    4.6100    4.6200    4.6300
    4.6400    4.6500    4.6600    4.6700    4.6800    4.6900    4.7000    4.7100
    4.7200    4.7300    4.7400    4.7500    4.7600    4.7700    4.7800    4.7900
    4.8000    4.8100    4.8200    4.8300    4.8400    4.8500    4.8600    4.8700
    4.8800    4.8900    4.9000    4.9100    4.9200    4.9300    4.9400    4.9500
    4.9600    4.9700    4.9800    4.9900    5.0000    5.0100    5.0200    5.0300
    5.0400    5.0500    5.0600    5.0700    5.0800    5.0900    5.1000    5.1100
    5.1200    5.1300    5.1400    5.1500    5.1600    5.1700    5.1800    5.1900
    5.2000    5.2100    5.2200    5.2300    5.2400    5.2500    5.2600    5.2700
    5.2800    5.2900    5.3000    5.3100    5.3200    5.3300    5.3400    5.3500
    5.3600    5.3700    5.3800    5.3900    5.4000    5.4100    5.4200    5.4300
    5.4400    5.4500    5.4600    5.4700    5.4800    5.4900    5.5000    5.5100
    5.5200    5.5300    5.5400    5.5500    5.5600    5.5700    5.5800    5.5900
    5.6000    5.6100    5.6200    5.6300    5.6400    5.6500    5.6600    5.6700
    5.6800    5.6900    5.7000    5.7100    5.7200    5.7300    5.7400    5.7500
    5.7600    5.7700    5.7800    5.7900    5.8000    5.8100    5.8200    5.8300
    5.8400    5.8500    5.8600    5.8700    5.8800    5.8900    5.9000    5.9100
    5.9200    5.9300    5.9400    5.9500    5.9600    5.9700    5.9800    5.9900
    6.0000    6.0100    6.0200    6.0300    6.0400    6.0500    6.0600    6.0700
    6.0800    6.0900    6.1000    6.1100    6.1200    6.1300    6.1400    6.1500
    6.1600    6.1700    6.1800    6.1900    6.2000    6.2100    6.2200    6.2300
    6.2400    6.2500    6.2600    6.2700    6.2800    6.2900    6.3000    6.3100
    6.3200    6.3300    6.3400    6.3500    6.3600    6.3700    6.3800    6.3900
    6.4000    6.4100    6.4200    6.4300    6.4400    6.4500    6.4600    6.4700
    6.4800    6.4900    6.5000    6.5100    6.5200    6.5300    6.5400    6.5500
    6.5600    6.5700    6.5800    6.5900    6.6000    6.6100    6.6200    6.6300
    6.6400    6.6500    6.6600    6.6700    6.6800    6.6900    6.7000    6.7100
    6.7200    6.7300    6.7400    6.7500    6.7600    6.7700    6.7800    6.7900
    6.8000    6.8100    6.8200    6.8300    6.8400    6.8500    6.8600    6.8700
    6.8800    6.8900    6.9000    6.9100    6.9200    6.9300    6.9400    6.9500
    6.9600    6.9700    6.9800    6.9900    7.0000    7.0100    7.0200    7.0300
    7.0400    7.0500    7.0600    7.0700    7.0800    7.0900    7.1000    7.1100
    7.1200    7.1300    7.1400    7.1500    7.1600    7.1700    7.1800    7.1900
    7.2000    7.2100    7.2200    7.2300    7.2400    7.2500    7.2600    7.2700
    7.2800    7.2900    7.3000    7.3100    7.3200    7.3300    7.3400    7.3500
    7.3600    7.3700    7.3800    7.3900    7.4000    7.4100    7.4200    7.4300
    7.4400    7.4500    7.4600    7.4700    7.4800    7.4900    7.5000    7.5100
    7.5200    7.5300    7.5400    7.5500    7.5600    7.5700
   </PP_R>
   <PP_RAB type="real"  size=" 758" columns="8">
    0.0100    0.0100    0.0100    0.0100    0.0100    0.0100    0.0100    0.0100
    0.0100    0.0100    0.0100    0.0100    0.0100    0.0100    0.0100    0.0100
    0.0100    0.0100    0.0100    0.0100    0.0100    0.0100    0.0100    0.0100
    0.0100    0.0100    0.0100    0.0100    0.0100    0.0100    0.0100    0.0100
    0.0100    0.0100    0.0100    0.0100    0.0100    0.0100    0.0100    0.0100
    0.0100    0.0100    0.0100    0.0100    0.0100    0.0100    0.0100    0.0100
    0.0100    0.0100    0.0100    0.0100    0.0100    0.0100    0.0100    0.0100
    0.0100    0.0100    0.0100    0.0100    0.0100    0.0100    0.0100    0.0100
    0.0100    0.0100    0.0100    0.0100    0.0100    0.0100    0.0100    0.0100
    0.0100    0.0100    0.0100    0.0100    0.0100    0.0100    0.0100    0.0100
    0.0100    0.0100    0.0100    0.0100    0.0100    0.0100    0.0100    0.0100
    0.0100    0.0100    0.0100    0.0100    0.0100    0.0100    0.0100    0.0100
    0.0100    0.0100    0.0100    0.0100    0.0100    0.0100    0.0100    0.0100
    0.0100    0.0100    0.0100    0.0100    0.0100    0.0100    0.0100    0.0100
    0.0100    0.0100    0.0100    0.0100    0.0100    0.0100    0.0100    0.0100
    0.0100    0.0100    0.0100    0.0100    0.0100    0.0100    0.0100    0.0100
    0.0100    0.0100    0.0100    0.0100    0.0100    0.0100    0.0100    0.0100
    0.0100    0.0100    0.0100    0.0100    0.0100    0.0100    0.0100    0.0100
    0.0100    0.0100    0.0100    0.0100    0.0100    0.0100    0.0100    0.0100
    0.0100    0.0100    0.0100    0.0100    0.0100    0.0100    0.0100    0.0100
    0.0100    0.0100    0.0100    0.0100    0.0100    0.0100    0.0100    0.0100
    0.0100    0.0100    0.0100    0.0100    0.0100    0.0100    0.0100    0.0100
    0.0100    0.0100    0.0100    0.0100    0.0100    0.0100    0.0100    0.0100
    0.0100    0.0100    0.0100    0.0100    0.0100    0.0100    0.0100    0.0100
    0.0100    0.0100    0.0100    0.0100    0.0100    0.0100    0.0100    0.0100
    0.0100    0.0100    0.0100    0.0100    0.0100    0.0100    0.0100    0.0100
    0.0100    0.0100    0.0100    0.0100    0.0100    0.0100    0.0100    0.0100
    0.0100    0.0100    0.0100    0.0100    0.0100    0.0100    0.0100    0.0100
    0.0100    0.0100    0.0100    0.0100    0.0100    0.0100    0.0100    0.0100
    0.0100    0.0100    0.0100    0.0100    0.0100    0.0100    0.0100    0.0100
    0.0100    0.0100    0.0100    0.0100    0.0100    0.0100    0.0100    0.0100
    0.0100    0.0100    0.0100    0.0100    0.0100    0.0100    0.0100    0.0100
    0.0100    0.0100    0.0100    0.0100    0.0100    0.0100    0.0100    0.0100
    0.0100    0.0100    0.0100    0.0100    0.0100    0.0100    0.0100    0.0100
    0.0100    0.0100    0.0100    0.0100    0.0100    0.0100    0.0100    0.0100
    0.0100    0.0100    0.0100    0.0100    0.0100    0.0100    0.0100    0.0100
    0.0100    0.0100    0.0100    0.0100    0.0100    0.0100    0.0100    0.0100
    0.0100    0.0100    0.0100    0.0100    0.0100    0.0100    0.0100    0.0100
    0.0100    0.0100    0.0100    0.0100    0.0100    0.0100    0.0100    0.0100
    0.0100    0.0100    0.0100    0.0100    0.0100    0.0100    0.0100    0.0100
    0.0100    0.0100    0.0100    0.0100    0.0100    0.0100    0.0100    0.0100
    0.0100    0.0100    0.0100    0.0100    0.0100    0.0100    0.0100    0.0100
    0.0100    0.0100    0.0100    0.0100    0.0100    0.0100    0.0100    0.0100
    0.0100    0.0100    0.0100    0.0100    0.0100    0.0100    0.0100    0.0100
    0.0100    0.0100    0.0100    0.0100    0.0100    0.0100    0.0100    0.0100
    0.0100    0.0100    0.0100    0.0100    0.0100    0.0100    0.0100    0.0100
    0.0100    0.0100    0.0100    0.0100    0.0100    0.0100    0.0100    0.0100
    0.0100    0.0100    0.0100    0.0100    0.0100    0.0100    0.0100    0.0100
    0.0100    0.0100    0.0100    0.0100    0.0100    0.0100    0.0100    0.0100
    0.0100    0.0100    0.0100    0.0100    0.0100    0.0100    0.0100    0.0100
    0.0100    0.0100    0.0100    0.0100    0.0100    0.0100    0.0100    0.0100
    0.0100    0.0100    0.0100    0.0100    0.0100    0.0100    0.0100    0.0100
    0.0100    0.0100    0.0100    0.0100    0.0100    0.0100    0.0100    0.0100
    0.0100    0.0100    0.0100    0.0100    0.0100    0.0100    0.0100    0.0100
    0.0100    0.0100    0.0100    0.0100    0.0100    0.0100    0.0100    0.0100
    0.0100    0.0100    0.0100    0.0100    0.0100    0.0100    0.0100    0.0100
    0.0100    0.0100    0.0100    0.0100    0.0100    0.0100    0.0100    0.0100
    0.0100    0.0100    0.0100    0.0100    0.0100    0.0100    0.0100    0.0100
    0.0100    0.0100    0.0100    0.0100    0.0100    0.0100    0.0100    0.0100
    0.0100    0.0100    0.0100    0.0100    0.0100    0.0100    0.0100    0.0100
    0.0100    0.0100    0.0100    0.0100    0.0100    0.0100    0.0100    0.0100
    0.0100    0.0100    0.0100    0.0100    0.0100    0.0100    0.0100    0.0100
    0.0100    0.0100    0.0100    0.0100    0.0100    0.0100    0.0100    0.0100
    0.0100    0.0100    0.0100    0.0100    0.0100    0.0100    0.0100    0.0100
    0.0100    0.0100    0.0100    0.0100    0.0100    0.0100    0.0100    0.0100
    0.0100    0.0100    0.0100    0.0100    0.0100    0.0100    0.0100    0.0100
    0.0100    0.0100    0.0100    0.0100    0.0100    0.0100    0.0100    0.0100
    0.0100    0.0100    0.0100    0.0100    0.0100    0.0100    0.0100    0.0100
    0.0100    0.0100    0.0100    0.0100    0.0100    0.0100    0.0100    0.0100
    0.0100    0.0100    0.0100    0.0100    0.0100    0.0100    0.0100    0.0100
    0.0100    0.0100    0.0100    0.0100    0.0100    0.0100    0.0100    0.0100
    0.0100    0.0100    0.0100    0.0100    0.0100    0.0100    0.0100    0.0100
    0.0100    0.0100    0.0100    0.0100    0.0100    0.0100    0.0100    0.0100
    0.0100    0.0100    0.0100    0.0100    0.0100    0.0100    0.0100    0.0100
    0.0100    0.0100    0.0100    0.0100    0.0100    0.0100    0.0100    0.0100
    0.0100    0.0100    0.0100    0.0100    0.0100    0.0100    0.0100    0.0100
    0.0100    0.0100    0.0100    0.0100    0.0100    0.0100    0.0100    0.0100
    0.0100    0.0100    0.0100    0.0100    0.0100    0.0100    0.0100    0.0100
    0.0100    0.0100    0.0100    0.0100    0.0100    0.0100    0.0100    0.0100
    0.0100    0.0100    0.0100    0.0100    0.0100    0.0100    0.0100    0.0100
    0.0100    0.0100    0.0100    0.0100    0.0100    0.0100    0.0100    0.0100
    0.0100    0.0100    0.0100    0.0100    0.0100    0.0100    0.0100    0.0100
    0.0100    0.0100    0.0100    0.0100    0.0100    0.0100    0.0100    0.0100
    0.0100    0.0100    0.0100    0.0100    0.0100    0.0100    0.0100    0.0100
    0.0100    0.0100    0.0100    0.0100    0.0100    0.0100    0.0100    0.0100
    0.0100    0.0100    0.0100    0.0100    0.0100    0.0100    0.0100    0.0100
    0.0100    0.0100    0.0100    0.0100    0.0100    0.0100    0.0100    0.0100
    0.0100    0.0100    0.0100    0.0100    0.0100    0.0100    0.0100    0.0100
    0.0100    0.0100    0.0100    0.0100    0.0100    0.0100    0.0100    0.0100
    0.0100    0.0100    0.0100    0.0100    0.0100    0.0100    0.0100    0.0100
    0.0100    0.0100    0.0100    0.0100    0.0100    0.0100    0.0100    0.0100
    0.0100    0.0100    0.0100    0.0100    0.0100    0.0100    0.0100    0.0100
    0.0100    0.0100    0.0100    0.0100    0.0100    0.0100    0.0100    0.0100
    0.0100    0.0100    0.0100    0.0100    0.0100    0.0100    0.0100    0.0100
    0.0100    0.0100    0.0100    0.0100    0.0100    0.0100
   </PP_RAB>
 </PP_MESH>
  <PP_LOCAL type="real"  size=" 758" columns="4">
   -2.6963853755E+01   -2.6974951286E+01   -2.7003639526E+01   -2.7043363867E+01
   -2.7085120374E+01   -2.7120711041E+01   -2.7144347647E+01   -2.7153014356E+01
   -2.7145999276E+01   -2.7124122669E+01   -2.7089016828E+01   -2.7042601892E+01
   -2.6986766521E+01   -2.6923206451E+01   -2.6853365495E+01   -2.6778434368E+01
   -2.6699377173E+01   -2.6616967497E+01   -2.6531824502E+01   -2.6444444591E+01
   -2.6355227221E+01   -2.6264494962E+01   -2.6172508551E+01   -2.6079477891E+01
   -2.5985569909E+01   -2.5890914054E+01   -2.5795606060E+01   -2.5699710459E+01
   -2.5603262223E+01   -2.5506267842E+01   -2.5408706081E+01   -2.5310528639E+01
   -2.5211660941E+01   -2.5112003227E+01   -2.5011432154E+01   -2.4909803058E+01
   -2.4806953004E+01   -2.4702704695E+01   -2.4596871234E+01   -2.4489261656E+01
   -2.4379687045E+01   -2.4267966990E+01   -2.4153936025E+01   -2.4037449718E+01
   -2.3918390002E+01   -2.3796669437E+01   -2.3672234136E+01   -2.3545065182E+01
   -2.3415178515E+01   -2.3282623368E+01   -2.3147479423E+01   -2.3009852981E+01
   -2.2869872451E+01   -2.2727683487E+01   -2.2583444094E+01   -2.2437319967E+01
   -2.2289480267E+01   -2.2140093980E+01   -2.1989326940E+01   -2.1837339525E+01
   -2.1684284995E+01   -2.1530308433E+01   -2.1375546175E+01   -2.1220125664E+01
   -2.1064165619E+01   -2.0907776441E+01   -2.0751060769E+01   -2.0594114137E+01
   -2.0437025662E+01   -2.0279878735E+01   -2.0122751677E+01   -1.9965718351E+01
   -1.9808848703E+01   -1.9652209242E+01   -1.9495863447E+01   -1.9339872100E+01
   -1.9184293566E+01   -1.9029184007E+01   -1.8874597546E+01   -1.8720586390E+01
   -1.8567200908E+01   -1.8414489683E+01   -1.8262499540E+01   -1.8111275548E+01
   -1.7960861017E+01   -1.7811297472E+01   -1.7662624635E+01   -1.7514880395E+01
   -1.7368100783E+01   -1.7222319948E+01   -1.7077570142E+01   -1.6933881708E+01
   -1.6791283078E+01   -1.6649800784E+01   -1.6509459476E+01   -1.6370281951E+01
   -1.6232289196E+01   -1.6095500438E+01   -1.5959933212E+01   -1.5825603427E+01
   -1.5692525451E+01   -1.5560712198E+01   -1.5430175223E+01   -1.5300924817E+01
   -1.5172970108E+01   -1.5046319158E+01   -1.4920979060E+01   -1.4796956028E+01
   -1.4674255479E+01   -1.4552882109E+01   -1.4432839957E+01   -1.4314132451E+01
   -1.4196762448E+01   -1.4080732252E+01   -1.3966043620E+01   -1.3852697750E+01
   -1.3740695253E+01   -1.3630036109E+01   -1.3520719612E+01   -1.3412744293E+01
   -1.3306107840E+01   -1.3200807005E+01   -1.3096837494E+01   -1.2994193865E+01
   -1.2892869412E+01   -1.2792856048E+01   -1.2694144188E+01   -1.2596722667E+01
   -1.2500578554E+01   -1.2405697082E+01   -1.2312061608E+01   -1.2219654424E+01
   -1.2128457549E+01   -1.2038454951E+01   -1.1949629343E+01   -1.1861959179E+01
   -1.1775424396E+01   -1.1690006916E+01   -1.1605688946E+01   -1.1522453541E+01
   -1.1440284551E+01   -1.1359166577E+01   -1.1279084962E+01   -1.1200025773E+01
   -1.1121975782E+01   -1.1044922439E+01   -1.0968853844E+01   -1.0893758705E+01
   -1.0819626292E+01   -1.0746446380E+01   -1.0674209176E+01   -1.0602905243E+01
   -1.0532525402E+01   -1.0463060637E+01   -1.0394501976E+01   -1.0326840375E+01
   -1.0260066587E+01   -1.0194171036E+01   -1.0129143682E+01   -1.0064973894E+01
   -1.0001650328E+01   -9.9391608150E+00   -9.8774922628E+00   -9.8166305770E+00
   -9.7565606035E+00   -9.6972660722E+00   -9.6387296804E+00   -9.5809331123E+00
   -9.5238567938E+00   -9.4674802934E+00   -9.4117824755E+00   -9.3567423840E+00
   -9.3023430071E+00   -9.2485722152E+00   -9.1954193018E+00   -9.1428736848E+00
   -9.0909252686E+00   -9.0395639095E+00   -8.9887796088E+00   -8.9385627364E+00
   -8.8889038327E+00   -8.8397936494E+00   -8.7912231427E+00   -8.7431834651E+00
   -8.6956659616E+00   -8.6486621643E+00   -8.6021637876E+00   -8.5561627231E+00
   -8.5106510348E+00   -8.4656209548E+00   -8.4210648786E+00   -8.3769753612E+00
   -8.3333451124E+00   -8.2901669933E+00   -8.2474340121E+00   -8.2051393206E+00
   -8.1632762101E+00   -8.1218381082E+00   -8.0808185755E+00   -8.0402113018E+00
   -8.0000101031E+00   -7.9602089185E+00   -7.9208018072E+00   -7.8817829455E+00
   -7.8431466238E+00   -7.8048872441E+00   -7.7669993167E+00   -7.7294774581E+00
   -7.6923163883E+00   -7.6555109288E+00   -7.6190559994E+00   -7.5829466163E+00
   -7.5471778895E+00   -7.5117450211E+00   -7.4766433027E+00   -7.4418681137E+00
   -7.4074149188E+00   -7.3732792665E+00   -7.3394567871E+00   -7.3059431903E+00
   -7.2727342642E+00   -7.2398258729E+00   -7.2072139551E+00   -7.1748945224E+00
   -7.1428636576E+00   -7.1111175131E+00   -7.0796523094E+00   -7.0484643336E+00
   -7.0175499379E+00   -6.9869055384E+00   -6.9565276133E+00   -6.9264127019E+00
   -6.8965574032E+00   -6.8669583744E+00   -6.8376123301E+00   -6.8085160407E+00
   -6.7796663314E+00   -6.7510600807E+00   -6.7226942199E+00   -6.6945657317E+00
   -6.6666716486E+00   -6.6390090530E+00   -6.6115750751E+00   -6.5843668923E+00
   -6.5573817287E+00   -6.5306168532E+00   -6.5040695794E+00   -6.4777372645E+00
   -6.4516173080E+00   -6.4257071515E+00   -6.4000042772E+00   -6.3745062078E+00
   -6.3492105051E+00   -6.3241147694E+00   -6.2992166389E+00   -6.2745137889E+00
   -6.2500039308E+00   -6.2256848119E+00   -6.2015542143E+00   -6.1776099542E+00
   -6.1538498817E+00   -6.1302718796E+00   -6.1068738631E+00   -6.0836537791E+00
   -6.0606096058E+00   -6.0377393515E+00   -6.0150410549E+00   -5.9925127838E+00
   -5.9701526349E+00   -5.9479587332E+00   -5.9259292316E+00   -5.9040623101E+00
   -5.8823561754E+00   -5.8608090608E+00   -5.8394192251E+00   -5.8181849526E+00
   -5.7971045522E+00   -5.7761763576E+00   -5.7553987261E+00   -5.7347700389E+00
   -5.7142887001E+00   -5.6939531365E+00   -5.6737617973E+00   -5.6537131537E+00
   -5.6338056983E+00   -5.6140379449E+00   -5.5944084281E+00   -5.5749157028E+00
   -5.5555583442E+00   -5.5363349470E+00   -5.5172441255E+00   -5.4982845128E+00
   -5.4794547610E+00   -5.4607535403E+00   -5.4421795392E+00   -5.4237314640E+00
   -5.4054080384E+00   -5.3872080032E+00   -5.3691301163E+00   -5.3511731520E+00
   -5.3333359013E+00   -5.3156171708E+00   -5.2980157832E+00   -5.2805305767E+00
   -5.2631604048E+00   -5.2459041360E+00   -5.2287606535E+00   -5.2117288553E+00
   -5.1948076534E+00   -5.1779959741E+00   -5.1612927575E+00   -5.1446969573E+00
   -5.1282075407E+00   -5.1118234880E+00   -5.0955437926E+00   -5.0793674605E+00
   -5.0632935104E+00   -5.0473209735E+00   -5.0314488929E+00   -5.0156763240E+00
   -5.0000023339E+00   -4.9844260011E+00   -4.9689464159E+00   -4.9535626797E+00
   -4.9382739049E+00   -4.9230792151E+00   -4.9079777443E+00   -4.8929686373E+00
   -4.8780510495E+00   -4.8632241461E+00   -4.8484871029E+00   -4.8338391053E+00
   -4.8192793487E+00   -4.8048070383E+00   -4.7904213884E+00   -4.7761216231E+00
   -4.7619069755E+00   -4.7477766878E+00   -4.7337300114E+00   -4.7197662063E+00
   -4.7058845413E+00   -4.6920842937E+00   -4.6783647493E+00   -4.6647252023E+00
   -4.6511649550E+00   -4.6376833179E+00   -4.6242796093E+00   -4.6109531555E+00
   -4.5977032906E+00   -4.5845293561E+00   -4.5714307013E+00   -4.5584066827E+00
   -4.5454566642E+00   -4.5325800168E+00   -4.5197761189E+00   -4.5070443556E+00
   -4.4943841191E+00   -4.4817948082E+00   -4.4692758287E+00   -4.4568265928E+00
   -4.4444465193E+00   -4.4321350334E+00   -4.4198915667E+00   -4.4077155571E+00
   -4.3956064487E+00   -4.3835636915E+00   -4.3715867417E+00   -4.3596750613E+00
   -4.3478281183E+00   -4.3360453863E+00   -4.3243263447E+00   -4.3126704786E+00
   -4.3010772783E+00   -4.2895462399E+00   -4.2780768648E+00   -4.2666686596E+00
   -4.2553211363E+00   -4.2440338121E+00   -4.2328062091E+00   -4.2216378546E+00
   -4.2105282809E+00   -4.1994770251E+00   -4.1884836292E+00   -4.1775476401E+00
   -4.1666686092E+00   -4.1558460926E+00   -4.1450796513E+00   -4.1343688504E+00
   -4.1237132598E+00   -4.1131124536E+00   -4.1025660106E+00   -4.0920735134E+00
   -4.0816345494E+00   -4.0712487098E+00   -4.0609155902E+00   -4.0506347901E+00
   -4.0404059132E+00   -4.0302285671E+00   -4.0201023634E+00   -4.0100269175E+00
   -4.0000018489E+00   -3.9900267805E+00   -3.9801013393E+00   -3.9702251558E+00
   -3.9603978643E+00   -3.9506191025E+00   -3.9408885120E+00   -3.9312057375E+00
   -3.9215704276E+00   -3.9119822341E+00   -3.9024408122E+00   -3.8929458206E+00
   -3.8834969211E+00   -3.8740937789E+00   -3.8647360625E+00   -3.8554234435E+00
   -3.8461555966E+00   -3.8369321998E+00   -3.8277529341E+00   -3.8186174834E+00
   -3.8095255348E+00   -3.8004767783E+00   -3.7914709069E+00   -3.7825076164E+00
   -3.7735866055E+00   -3.7647075759E+00   -3.7558702317E+00   -3.7470742803E+00
   -3.7383194314E+00   -3.7296053976E+00   -3.7209318941E+00   -3.7122986389E+00
   -3.7037053524E+00   -3.6951517578E+00   -3.6866375806E+00   -3.6781625490E+00
   -3.6697263937E+00   -3.6613288477E+00   -3.6529696467E+00   -3.6446485286E+00
   -3.6363652337E+00   -3.6281195047E+00   -3.6199110867E+00   -3.6117397270E+00
   -3.6036051751E+00   -3.5955071831E+00   -3.5874455049E+00   -3.5794198967E+00
   -3.5714301172E+00   -3.5634759269E+00   -3.5555570885E+00   -3.5476733669E+00
   -3.5398245290E+00   -3.5320103437E+00   -3.5242305822E+00   -3.5164850174E+00
   -3.5087734243E+00   -3.5010955800E+00   -3.4934512634E+00   -3.4858402553E+00
   -3.4782623386E+00   -3.4707172978E+00   -3.4632049195E+00   -3.4557249921E+00
   -3.4482773057E+00   -3.4408616524E+00   -3.4334778259E+00   -3.4261256217E+00
   -3.4188048372E+00   -3.4115152714E+00   -3.4042567251E+00   -3.3970290005E+00
   -3.3898319019E+00   -3.3826652350E+00   -3.3755288072E+00   -3.3684224274E+00
   -3.3613459064E+00   -3.3542990564E+00   -3.3472816910E+00   -3.3402936257E+00
   -3.3333346774E+00   -3.3264046643E+00   -3.3195034065E+00   -3.3126307253E+00
   -3.3057864437E+00   -3.2989703858E+00   -3.2921823776E+00   -3.2854222462E+00
   -3.2786898202E+00   -3.2719849297E+00   -3.2653074061E+00   -3.2586570822E+00
   -3.2520337922E+00   -3.2454373714E+00   -3.2388676568E+00   -3.2323244865E+00
   -3.2258076999E+00   -3.2193171379E+00   -3.2128526423E+00   -3.2064140566E+00
   -3.2000012251E+00   -3.1936139939E+00   -3.1872522097E+00   -3.1809157209E+00
   -3.1746043769E+00   -3.1683180283E+00   -3.1620565269E+00   -3.1558197258E+00
   -3.1496074790E+00   -3.1434196418E+00   -3.1372560706E+00   -3.1311166230E+00
   -3.1250011576E+00   -3.1189095341E+00   -3.1128416135E+00   -3.1067972577E+00
   -3.1007763295E+00   -3.0947786932E+00   -3.0888042138E+00   -3.0828527574E+00
   -3.0769241912E+00   -3.0710183834E+00   -3.0651352033E+00   -3.0592745210E+00
   -3.0534362077E+00   -3.0476201356E+00   -3.0418261778E+00   -3.0360542086E+00
   -3.0303041028E+00   -3.0245757365E+00   -3.0188689868E+00   -3.0131837314E+00
   -3.0075198491E+00   -3.0018772197E+00   -2.9962557238E+00   -2.9906552428E+00
   -2.9850756591E+00   -2.9795168560E+00   -2.9739787176E+00   -2.9684611288E+00
   -2.9629639756E+00   -2.9574871446E+00   -2.9520305234E+00   -2.9465940001E+00
   -2.9411774641E+00   -2.9357808053E+00   -2.9304039145E+00   -2.9250466833E+00
   -2.9197090040E+00   -2.9143907698E+00   -2.9090918747E+00   -2.9038122133E+00
   -2.8985516812E+00   -2.8933101744E+00   -2.8880875901E+00   -2.8828838259E+00
   -2.8776987803E+00   -2.8725323525E+00   -2.8673844424E+00   -2.8622549505E+00
   -2.8571437783E+00   -2.8520508277E+00   -2.8469760015E+00   -2.8419192031E+00
   -2.8368803367E+00   -2.8318593070E+00   -2.8268560194E+00   -2.8218703801E+00
   -2.8169022959E+00   -2.8119516742E+00   -2.8070184231E+00   -2.8021024514E+00
   -2.7972036684E+00   -2.7923219842E+00   -2.7874573093E+00   -2.7826095550E+00
   -2.7777786332E+00   -2.7729644564E+00   -2.7681669377E+00   -2.7633859907E+00
   -2.7586215298E+00   -2.7538734697E+00   -2.7491417261E+00   -2.7444262148E+00
   -2.7397268526E+00   -2.7350435566E+00   -2.7303762445E+00   -2.7257248348E+00
   -2.7210892461E+00   -2.7164693980E+00   -2.7118652105E+00   -2.7072766039E+00
   -2.7027034994E+00   -2.6981458186E+00   -2.6936034835E+00   -2.6890764167E+00
   -2.6845645415E+00   -2.6800677815E+00   -2.6755860608E+00   -2.6711193041E+00
   -2.6666674367E+00   -2.6622303841E+00   -2.6578080726E+00   -2.6534004288E+00