<UPF version="2.0.1">
  <PP_INFO>

 This pseudopotential file has been produced using the code
 ONCVPSP  (Optimized Norm-Conservinng Vanderbilt PSeudopotential)
 fully-relativistic version 3.3.0 08/16/2017 by D. R. Hamann
 The code is available through a link at URL www.mat-simresearch.com.
 Documentation with the package provides a full discription of the
 input data below.


 While it is not required under the terms of the GNU GPL, it is
 suggested that you cite D. R. Hamann, Phys. Rev. B 88, 085117 (2013)
 in any publication using these pseudopotentials.

    <PP_INPUTFILE>
# ATOM AND REFERENCE CONFIGURATION
# atsym  z   nc   nv     iexc    psfile
  F  9.00    1    2       4      upf
#
#   n    l    f        energy (Ha)
    1    0    2.00
    2    0    2.00
    2    1    5.00
#
# PSEUDOPOTENTIAL AND OPTIMIZATION
# lmax
    2
#
#   l,   rc,     ep,   ncon, nbas, qcut
    0   1.30000  -1.09875    4    8   8.60000
    1   1.45000  -0.40753    4    8   9.00000
    2   1.60000   0.15000    4    8   5.80000
#
# LOCAL POTENTIAL
# lloc, lpopt,  rc(5),   dvloc0
    4    5   0.95000      0.00000
#
# VANDERBILT-KLEINMAN-BYLANDER PROJECTORs
# l, nproj, debl
    0    2   1.50000
    1    2   1.49922
    2    1   2.00000
#
# MODEL CORE CHARGE
# icmod, fcfact, rcfact
    3   2.50000   1.85000
#
# LOG DERIVATIVE ANALYSIS
# epsh1, epsh2, depsh
  -12.00   12.00    0.02
#
# OUTPUT GRID
# rlmax, drl
    6.00    0.01
#
# TEST CONFIGURATIONS
# ncnf
    0
# nvcnf
#   n    l    f
    </PP_INPUTFILE>
  </PP_INFO>
  <!--                               -->
  <!-- END OF HUMAN READABLE SECTION -->
  <!--                               -->
    <PP_HEADER
       generated="Generated using ONCVPSP code by D. R. Hamann"
       author="anonymous"
       date="170818"
       comment=""
       element="F "
       pseudo_type="NC"
       relativistic="full"
       is_ultrasoft="F"
       is_paw="F"
       is_coulomb="F"
       has_so="T"
       has_wfc="F"
       has_gipaw="F"
       core_correction="T"
       functional="PBE"
       z_valence="    7.00"
       total_psenergy="  -4.77451400291E+01"
       rho_cutoff="   8.31000000000E+00"
       l_max="2"
       l_local="-1"
       mesh_size="   832"
       number_of_wfc="3"
       number_of_proj="8"/>
 <PP_MESH>
   <PP_R type="real"  size=" 832" columns="8">
    0.0000    0.0100    0.0200    0.0300    0.0400    0.0500    0.0600    0.0700
    0.0800    0.0900    0.1000    0.1100    0.1200    0.1300    0.1400    0.1500
    0.1600    0.1700    0.1800    0.1900    0.2000    0.2100    0.2200    0.2300
    0.2400    0.2500    0.2600    0.2700    0.2800    0.2900    0.3000    0.3100
    0.3200    0.3300    0.3400    0.3500    0.3600    0.3700    0.3800    0.3900
    0.4000    0.4100    0.4200    0.4300    0.4400    0.4500    0.4600    0.4700
    0.4800    0.4900    0.5000    0.5100    0.5200    0.5300    0.5400    0.5500
    0.5600    0.5700    0.5800    0.5900    0.6000    0.6100    0.6200    0.6300
    0.6400    0.6500    0.6600    0.6700    0.6800    0.6900    0.7000    0.7100
    0.7200    0.7300    0.7400    0.7500    0.7600    0.7700    0.7800    0.7900
    0.8000    0.8100    0.8200    0.8300    0.8400    0.8500    0.8600    0.8700
    0.8800    0.8900    0.9000    0.9100    0.9200    0.9300    0.9400    0.9500
    0.9600    0.9700    0.9800    0.9900    1.0000    1.0100    1.0200    1.0300
    1.0400    1.0500    1.0600    1.0700    1.0800    1.0900    1.1000    1.1100
    1.1200    1.1300    1.1400    1.1500    1.1600    1.1700    1.1800    1.1900
    1.2000    1.2100    1.2200    1.2300    1.2400    1.2500    1.2600    1.2700
    1.2800    1.2900    1.3000    1.3100    1.3200    1.3300    1.3400    1.3500
    1.3600    1.3700    1.3800    1.3900    1.4000    1.4100    1.4200    1.4300
    1.4400    1.4500    1.4600    1.4700    1.4800    1.4900    1.5000    1.5100
    1.5200    1.5300    1.5400    1.5500    1.5600    1.5700    1.5800    1.5900
    1.6000    1.6100    1.6200    1.6300    1.6400    1.6500    1.6600    1.6700
    1.6800    1.6900    1.7000    1.7100    1.7200    1.7300    1.7400    1.7500
    1.7600    1.7700    1.7800    1.7900    1.8000    1.8100    1.8200    1.8300
    1.8400    1.8500    1.8600    1.8700    1.8800    1.8900    1.9000    1.9100
    1.9200    1.9300    1.9400    1.9500    1.9600    1.9700    1.9800    1.9900
    2.0000    2.0100    2.0200    2.0300    2.0400    2.0500    2.0600    2.0700
    2.0800    2.0900    2.1000    2.1100    2.1200    2.1300    2.1400    2.1500
    2.1600    2.1700    2.1800    2.1900    2.2000    2.2100    2.2200    2.2300
    2.2400    2.2500    2.2600    2.2700    2.2800    2.2900    2.3000    2.3100
    2.3200    2.3300    2.3400    2.3500    2.3600    2.3700    2.3800    2.3900
    2.4000    2.4100    2.4200    2.4300    2.4400    2.4500    2.4600    2.4700
    2.4800    2.4900    2.5000    2.5100    2.5200    2.5300    2.5400    2.5500
    2.5600    2.5700    2.5800    2.5900    2.6000    2.6100    2.6200    2.6300
    2.6400    2.6500    2.6600    2.6700    2.6800    2.6900    2.7000    2.7100
    2.7200    2.7300    2.7400    2.7500    2.7600    2.7700    2.7800    2.7900
    2.8000    2.8100    2.8200    2.8300    2.8400    2.8500    2.8600    2.8700
    2.8800    2.8900    2.9000    2.9100    2.9200    2.9300    2.9400    2.9500
    2.9600    2.9700    2.9800    2.9900    3.0000    3.0100    3.0200    3.0300
    3.0400    3.0500    3.0600    3.0700    3.0800    3.0900    3.1000    3.1100
    3.1200    3.1300    3.1400    3.1500    3.1600    3.1700    3.1800    3.1900
    3.2000    3.2100    3.2200    3.2300    3.2400    3.2500    3.2600    3.2700
    3.2800    3.2900    3.3000    3.3100    3.3200    3.3300    3.3400    3.3500
    3.3600    3.3700    3.3800    3.3900    3.4000    3.4100    3.4200    3.4300
    3.4400    3.4500    3.4600    3.4700    3.4800    3.4900    3.5000    3.5100
    3.5200    3.5300    3.5400    3.5500    3.5600    3.5700    3.5800    3.5900
    3.6000    3.6100    3.6200    3.6300    3.6400    3.6500    3.6600    3.6700
    3.6800    3.6900    3.7000    3.7100    3.7200    3.7300    3.7400    3.7500
    3.7600    3.7700    3.7800    3.7900    3.8000    3.8100    3.8200    3.8300
    3.8400    3.8500    3.8600    3.8700    3.8800    3.8900    3.9000    3.9100
    3.9200    3.9300    3.9400    3.9500    3.9600    3.9700    3.9800    3.9900
    4.0000    4.0100    4.0200    4.0300    4.0400    4.0500    4.0600    4.0700
    4.0800    4.0900    4.1000    4.1100    4.1200    4.1300    4.1400    4.1500
    4.1600    4.1700    4.1800    4.1900    4.2000    4.2100    4.2200    4.2300
    4.2400    4.2500    4.2600    4.2700    4.2800    4.2900    4.3000    4.3100
    4.3200    4.3300    4.3400    4.3500    4.3600    4.3700    4.3800    4.3900
    4.4000    4.4100    4.4200    4.4300    4.4400    4.4500    4.4600    4.4700
    4.4800    4.4900    4.5000    4.5100    4.5200    4.5300    4.5400    4.5500
    4.5600    4.5700    4.5800    4.5900    4.6000    4.6100    4.6200    4.6300
    4.6400    4.6500    4.6600    4.6700    4.6800    4.6900    4.7000    4.7100
    4.7200    4.7300    4.7400    4.7500    4.7600    4.7700    4.7800    4.7900
    4.8000    4.8100    4.8200    4.8300    4.8400    4.8500    4.8600    4.8700
    4.8800    4.8900    4.9000    4.9100    4.9200    4.9300    4.9400    4.9500
    4.9600    4.9700    4.9800    4.9900    5.0000    5.0100    5.0200    5.0300
    5.0400    5.0500    5.0600    5.0700    5.0800    5.0900    5.1000    5.1100
    5.1200    5.1300    5.1400    5.1500    5.1600    5.1700    5.1800    5.1900
    5.2000    5.2100    5.2200    5.2300    5.2400    5.2500    5.2600    5.2700
    5.2800    5.2900    5.3000    5.3100    5.3200    5.3300    5.3400    5.3500
    5.3600    5.3700    5.3800    5.3900    5.4000    5.4100    5.4200    5.4300
    5.4400    5.4500    5.4600    5.4700    5.4800    5.4900    5.5000    5.5100
    5.5200    5.5300    5.5400    5.5500    5.5600    5.5700    5.5800    5.5900
    5.6000    5.6100    5.6200    5.6300    5.6400    5.6500    5.6600    5.6700
    5.6800    5.6900    5.7000    5.7100    5.7200    5.7300    5.7400    5.7500
    5.7600    5.7700    5.7800    5.7900    5.8000    5.8100    5.8200    5.8300
    5.8400    5.8500    5.8600    5.8700    5.8800    5.8900    5.9000    5.9100
    5.9200    5.9300    5.9400    5.9500    5.9600    5.9700    5.9800    5.9900
    6.0000    6.0100    6.0200    6.0300    6.0400    6.0500    6.0600    6.0700
    6.0800    6.0900    6.1000    6.1100    6.1200    6.1300    6.1400    6.1500
    6.1600    6.1700    6.1800    6.1900    6.2000    6.2100    6.2200    6.2300
    6.2400    6.2500    6.2600    6.2700    6.2800    6.2900    6.3000    6.3100
    6.3200    6.3300    6.3400    6.3500    6.3600    6.3700    6.3800    6.3900
    6.4000    6.4100    6.4200    6.4300    6.4400    6.4500    6.4600    6.4700
    6.4800    6.4900    6.5000    6.5100    6.5200    6.5300    6.5400    6.5500
    6.5600    6.5700    6.5800    6.5900    6.6000    6.6100    6.6200    6.6300
    6.6400    6.6500    6.6600    6.6700    6.6800    6.6900    6.7000    6.7100
    6.7200    6.7300    6.7400    6.7500    6.7600    6.7700    6.7800    6.7900
    6.8000    6.8100    6.8200    6.8300    6.8400    6.8500    6.8600    6.8700
    6.8800    6.8900    6.9000    6.9100    6.9200    6.9300    6.9400    6.9500
    6.9600    6.9700    6.9800    6.9900    7.0000    7.0100    7.0200    7.0300
    7.0400    7.0500    7.0600    7.0700    7.0800    7.0900    7.1000    7.1100
    7.1200    7.1300    7.1400    7.1500    7.1600    7.1700    7.1800    7.1900
    7.2000    7.2100    7.2200    7.2300    7.2400    7.2500    7.2600    7.2700
    7.2800    7.2900    7.3000    7.3100    7.3200    7.3300    7.3400    7.3500
    7.3600    7.3700    7.3800    7.3900    7.4000    7.4100    7.4200    7.4300
    7.4400    7.4500    7.4600    7.4700    7.4800    7.4900    7.5000    7.5100
    7.5200    7.5300    7.5400    7.5500    7.5600    7.5700    7.5800    7.5900
    7.6000    7.6100    7.6200    7.6300    7.6400    7.6500    7.6600    7.6700
    7.6800    7.6900    7.7000    7.7100    7.7200    7.7300    7.7400    7.7500
    7.7600    7.7700    7.7800    7.7900    7.8000    7.8100    7.8200    7.8300
    7.8400    7.8500    7.8600    7.8700    7.8800    7.8900    7.9000    7.9100
    7.9200    7.9300    7.9400    7.9500    7.9600    7.9700    7.9800    7.9900
    8.0000    8.0100    8.0200    8.0300    8.0400    8.0500    8.0600    8.0700
    8.0800    8.0900    8.1000    8.1100    8.1200    8.1300    8.1400    8.1500
    8.1600    8.1700    8.1800    8.1900    8.2000    8.2100    8.2200    8.2300
    8.2400    8.2500    8.2600    8.2700    8.2800    8.2900    8.3000    8.3100
   </PP_R>
   <PP_RAB type="real"  size=" 832" columns="8">
    0.0100    0.0100    0.0100    0.0100    0.0100    0.0100    0.0100    0.0100
    0.0100    0.0100    0.0100    0.0100    0.0100    0.0100    0.0100    0.0100
    0.0100    0.0100    0.0100    0.0100    0.0100    0.0100    0.0100    0.0100
    0.0100    0.0100    0.0100    0.0100    0.0100    0.0100    0.0100    0.0100
    0.0100    0.0100    0.0100    0.0100    0.0100    0.0100    0.0100    0.0100
    0.0100    0.0100    0.0100    0.0100    0.0100    0.0100    0.0100    0.0100
    0.0100    0.0100    0.0100    0.0100    0.0100    0.0100    0.0100    0.0100
    0.0100    0.0100    0.0100    0.0100    0.0100    0.0100    0.0100    0.0100
    0.0100    0.0100    0.0100    0.0100    0.0100    0.0100    0.0100    0.0100
    0.0100    0.0100    0.0100    0.0100    0.0100    0.0100    0.0100    0.0100
    0.0100    0.0100    0.0100    0.0100    0.0100    0.0100    0.0100    0.0100
    0.0100    0.0100    0.0100    0.0100    0.0100    0.0100    0.0100    0.0100
    0.0100    0.0100    0.0100    0.0100    0.0100    0.0100    0.0100    0.0100
    0.0100    0.0100    0.0100    0.0100    0.0100    0.0100    0.0100    0.0100
    0.0100    0.0100    0.0100    0.0100    0.0100    0.0100    0.0100    0.0100
    0.0100    0.0100    0.0100    0.0100    0.0100    0.0100    0.0100    0.0100
    0.0100    0.0100    0.0100    0.0100    0.0100    0.0100    0.0100    0.0100
    0.0100    0.0100    0.0100    0.0100    0.0100    0.0100    0.0100    0.0100
    0.0100    0.0100    0.0100    0.0100    0.0100    0.0100    0.0100    0.0100
    0.0100    0.0100    0.0100    0.0100    0.0100    0.0100    0.0100    0.0100
    0.0100    0.0100    0.0100    0.0100    0.0100    0.0100    0.0100    0.0100
    0.0100    0.0100    0.0100    0.0100    0.0100    0.0100    0.0100    0.0100
    0.0100    0.0100    0.0100    0.0100    0.0100    0.0100    0.0100    0.0100
    0.0100    0.0100    0.0100    0.0100    0.0100    0.0100    0.0100    0.0100
    0.0100    0.0100    0.0100    0.0100    0.0100    0.0100    0.0100    0.0100
    0.0100    0.0100    0.0100    0.0100    0.0100    0.0100    0.0100    0.0100
    0.0100    0.0100    0.0100    0.0100    0.0100    0.0100    0.0100    0.0100
    0.0100    0.0100    0.0100    0.0100    0.0100    0.0100    0.0100    0.0100
    0.0100    0.0100    0.0100    0.0100    0.0100    0.0100    0.0100    0.0100
    0.0100    0.0100    0.0100    0.0100    0.0100    0.0100    0.0100    0.0100
    0.0100    0.0100    0.0100    0.0100    0.0100    0.0100    0.0100    0.0100
    0.0100    0.0100    0.0100    0.0100    0.0100    0.0100    0.0100    0.0100
    0.0100    0.0100    0.0100    0.0100    0.0100    0.0100    0.0100    0.0100
    0.0100    0.0100    0.0100    0.0100    0.0100    0.0100    0.0100    0.0100
    0.0100    0.0100    0.0100    0.0100    0.0100    0.0100    0.0100    0.0100
    0.0100    0.0100    0.0100    0.0100    0.0100    0.0100    0.0100    0.0100
    0.0100    0.0100    0.0100    0.0100    0.0100    0.0100    0.0100    0.0100
    0.0100    0.0100    0.0100    0.0100    0.0100    0.0100    0.0100    0.0100
    0.0100    0.0100    0.0100    0.0100    0.0100    0.0100    0.0100    0.0100
    0.0100    0.0100    0.0100    0.0100    0.0100    0.0100    0.0100    0.0100
    0.0100    0.0100    0.0100    0.0100    0.0100    0.0100    0.0100    0.0100
    0.0100    0.0100    0.0100    0.0100    0.0100    0.0100    0.0100    0.0100
    0.0100    0.0100    0.0100    0.0100    0.0100    0.0100    0.0100    0.0100
    0.0100    0.0100    0.0100    0.0100    0.0100    0.0100    0.0100    0.0100
    0.0100    0.0100    0.0100    0.0100    0.0100    0.0100    0.0100    0.0100
    0.0100    0.0100    0.0100    0.0100    0.0100    0.0100    0.0100    0.0100
    0.0100    0.0100    0.0100    0.0100    0.0100    0.0100    0.0100    0.0100
    0.0100    0.0100    0.0100    0.0100    0.0100    0.0100    0.0100    0.0100
    0.0100    0.0100    0.0100    0.0100    0.0100    0.0100    0.0100    0.0100
    0.0100    0.0100    0.0100    0.0100    0.0100    0.0100    0.0100    0.0100
    0.0100    0.0100    0.0100    0.0100    0.0100    0.0100    0.0100    0.0100
    0.0100    0.0100    0.0100    0.0100    0.0100    0.0100    0.0100    0.0100
    0.0100    0.0100    0.0100    0.0100    0.0100    0.0100    0.0100    0.0100
    0.0100    0.0100    0.0100    0.0100    0.0100    0.0100    0.0100    0.0100
    0.0100    0.0100    0.0100    0.0100    0.0100    0.0100    0.0100    0.0100
    0.0100    0.0100    0.0100    0.0100    0.0100    0.0100    0.0100    0.0100
    0.0100    0.0100    0.0100    0.0100    0.0100    0.0100    0.0100    0.0100
    0.0100    0.0100    0.0100    0.0100    0.0100    0.0100    0.0100    0.0100
    0.0100    0.0100    0.0100    0.0100    0.0100    0.0100    0.0100    0.0100
    0.0100    0.0100    0.0100    0.0100    0.0100    0.0100    0.0100    0.0100
    0.0100    0.0100    0.0100    0.0100    0.0100    0.0100    0.0100    0.0100
    0.0100    0.0100    0.0100    0.0100    0.0100    0.0100    0.0100    0.0100
    0.0100    0.0100    0.0100    0.0100    0.0100    0.0100    0.0100    0.0100
    0.0100    0.0100    0.0100    0.0100    0.0100    0.0100    0.0100    0.0100
    0.0100    0.0100    0.0100    0.0100    0.0100    0.0100    0.0100    0.0100
    0.0100    0.0100    0.0100    0.0100    0.0100    0.0100    0.0100    0.0100
    0.0100    0.0100    0.0100    0.0100    0.0100    0.0100    0.0100    0.0100
    0.0100    0.0100    0.0100    0.0100    0.0100    0.0100    0.0100    0.0100
    0.0100    0.0100    0.0100    0.0100    0.0100    0.0100    0.0100    0.0100
    0.0100    0.0100    0.0100    0.0100    0.0100    0.0100    0.0100    0.0100
    0.0100    0.0100    0.0100    0.0100    0.0100    0.0100    0.0100    0.0100
    0.0100    0.0100    0.0100    0.0100    0.0100    0.0100    0.0100    0.0100
    0.0100    0.0100    0.0100    0.0100    0.0100    0.0100    0.0100    0.0100
    0.0100    0.0100    0.0100    0.0100    0.0100    0.0100    0.0100    0.0100
    0.0100    0.0100    0.0100    0.0100    0.0100    0.0100    0.0100    0.0100
    0.0100    0.0100    0.0100    0.0100    0.0100    0.0100    0.0100    0.0100
    0.0100    0.0100    0.0100    0.0100    0.0100    0.0100    0.0100    0.0100
    0.0100    0.0100    0.0100    0.0100    0.0100    0.0100    0.0100    0.0100
    0.0100    0.0100    0.0100    0.0100    0.0100    0.0100    0.0100    0.0100
    0.0100    0.0100    0.0100    0.0100    0.0100    0.0100    0.0100    0.0100
    0.0100    0.0100    0.0100    0.0100    0.0100    0.0100    0.0100    0.0100
    0.0100    0.0100    0.0100    0.0100    0.0100    0.0100    0.0100    0.0100
    0.0100    0.0100    0.0100    0.0100    0.0100    0.0100    0.0100    0.0100
    0.0100    0.0100    0.0100    0.0100    0.0100    0.0100    0.0100    0.0100
    0.0100    0.0100    0.0100    0.0100    0.0100    0.0100    0.0100    0.0100
    0.0100    0.0100    0.0100    0.0100    0.0100    0.0100    0.0100    0.0100
    0.0100    0.0100    0.0100    0.0100    0.0100    0.0100    0.0100    0.0100
    0.0100    0.0100    0.0100    0.0100    0.0100    0.0100    0.0100    0.0100
    0.0100    0.0100    0.0100    0.0100    0.0100    0.0100    0.0100    0.0100
    0.0100    0.0100    0.0100    0.0100    0.0100    0.0100    0.0100    0.0100
    0.0100    0.0100    0.0100    0.0100    0.0100    0.0100    0.0100    0.0100
    0.0100    0.0100    0.0100    0.0100    0.0100    0.0100    0.0100    0.0100
    0.0100    0.0100    0.0100    0.0100    0.0100    0.0100    0.0100    0.0100
    0.0100    0.0100    0.0100    0.0100    0.0100    0.0100    0.0100    0.0100
    0.0100    0.0100    0.0100    0.0100    0.0100    0.0100    0.0100    0.0100
    0.0100    0.0100    0.0100    0.0100    0.0100    0.0100    0.0100    0.0100
    0.0100    0.0100    0.0100    0.0100    0.0100    0.0100    0.0100    0.0100
    0.0100    0.0100    0.0100    0.0100    0.0100    0.0100    0.0100    0.0100
    0.0100    0.0100    0.0100    0.0100    0.0100    0.0100    0.0100    0.0100
    0.0100    0.0100    0.0100    0.0100    0.0100    0.0100    0.0100    0.0100
    0.0100    0.0100    0.0100    0.0100    0.0100    0.0100    0.0100    0.0100
    0.0100    0.0100    0.0100    0.0100    0.0100    0.0100    0.0100    0.0100
    0.0100    0.0100    0.0100    0.0100    0.0100    0.0100    0.0100    0.0100
    0.0100    0.0100    0.0100    0.0100    0.0100    0.0100    0.0100    0.0100
   </PP_RAB>
 </PP_MESH>
  <PP_LOCAL type="real"  size=" 832" columns="4">
   -3.0447227210E+01   -3.0444367781E+01   -3.0435795799E+01   -3.0421530091E+01
   -3.0401601255E+01   -3.0376050574E+01   -3.0344928586E+01   -3.0308293392E+01
   -3.0266208802E+01   -3.0218742430E+01   -3.0165963802E+01   -3.0107942602E+01
   -3.0044747086E+01   -2.9976442741E+01   -2.9903091206E+01   -2.9824749481E+01
   -2.9741469413E+01   -2.9653297456E+01   -2.9560274673E+01   -2.9462436953E+01
   -2.9359815421E+01   -2.9252436984E+01   -2.9140325007E+01   -2.9023500075E+01
   -2.8901980811E+01   -2.8775784735E+01   -2.8644929151E+01   -2.8509432021E+01
   -2.8369312850E+01   -2.8224593536E+01   -2.8075299209E+01   -2.7921459029E+01
   -2.7763106956E+01   -2.7600282473E+01   -2.7433031270E+01   -2.7261405880E+01
   -2.7085466259E+01   -2.6905280314E+01   -2.6720924365E+01   -2.6532483536E+01
   -2.6340052078E+01   -2.6143733609E+01   -2.5943641265E+01   -2.5739897766E+01
   -2.5532635386E+01   -2.5321995837E+01   -2.5108130045E+01   -2.4891197858E+01
   -2.4671367652E+01   -2.4448815876E+01   -2.4223726527E+01   -2.3996290573E+01
   -2.3766705335E+01   -2.3535173838E+01   -2.3301904154E+01   -2.3067108720E+01
   -2.2831003674E+01   -2.2593808180E+01   -2.2355743769E+01   -2.2117033685E+01
   -2.1877902231E+01   -2.1638574129E+01   -2.1399273862E+01   -2.1160225022E+01
   -2.0921649636E+01   -2.0683767487E+01   -2.0446795414E+01   -2.0210946594E+01
   -1.9976429822E+01   -1.9743448768E+01   -1.9512201248E+01   -1.9282878486E+01
   -1.9055664401E+01   -1.8830734910E+01   -1.8608257271E+01   -1.8388389452E+01
   -1.8171279564E+01   -1.7957065329E+01   -1.7745873617E+01   -1.7537820037E+01
   -1.7333008579E+01   -1.7131531327E+01   -1.6933468217E+01   -1.6738886849E+01
   -1.6547842346E+01   -1.6360377251E+01   -1.6176521464E+01   -1.5996292202E+01
   -1.5819693982E+01   -1.5646718621E+01   -1.5477345240E+01   -1.5311540278E+01
   -1.5149257491E+01   -1.4990437954E+01   -1.4835010037E+01   -1.4682889424E+01
   -1.4533978868E+01   -1.4388169012E+01   -1.4245346080E+01   -1.4105399704E+01
   -1.3968224256E+01   -1.3833718503E+01   -1.3701785668E+01   -1.3572333366E+01
   -1.3445273542E+01   -1.3320522378E+01   -1.3198000192E+01   -1.3077631332E+01
   -1.2959344049E+01   -1.2843070367E+01   -1.2728745949E+01   -1.2616309959E+01
   -1.2505704926E+01   -1.2396876599E+01   -1.2289773824E+01   -1.2184348404E+01
   -1.2080554980E+01   -1.1978350913E+01   -1.1877696167E+01   -1.1778553207E+01
   -1.1680886895E+01   -1.1584664394E+01   -1.1489855077E+01   -1.1396430432E+01
   -1.1304363977E+01   -1.1213631152E+01   -1.1124209251E+01   -1.1036077340E+01
   -1.0949215991E+01   -1.0863607218E+01   -1.0779234736E+01   -1.0696086865E+01
   -1.0614157475E+01   -1.0533447654E+01   -1.0453950376E+01   -1.0375648451E+01
   -1.0298528738E+01   -1.0222578638E+01   -1.0147784181E+01   -1.0074130927E+01
   -1.0001603673E+01   -9.9301859984E+00   -9.8598608381E+00   -9.7906099574E+00
   -9.7224146602E+00   -9.6552507935E+00   -9.5890823742E+00   -9.5238607209E+00
   -9.4595238106E+00   -9.3960358593E+00   -9.3333927031E+00   -9.2715812636E+00
   -9.2105814789E+00   -9.1503779072E+00   -9.0909556130E+00   -9.0322996441E+00
   -8.9743954708E+00   -8.9172289442E+00   -8.8607862475E+00   -8.8050538842E+00
   -8.7500186641E+00   -8.6956676908E+00   -8.6419883516E+00   -8.5889683092E+00
   -8.5365954955E+00   -8.4848581062E+00   -8.4337445978E+00   -8.3832436841E+00
   -8.3333443343E+00   -8.2840357709E+00   -8.2353074675E+00   -8.1871491470E+00
   -8.1395507782E+00   -8.0925025730E+00   -8.0459949821E+00   -8.0000186902E+00
   -7.9545646102E+00   -7.9096238768E+00   -7.8651878411E+00   -7.8212480619E+00
   -7.7777962968E+00   -7.7348244974E+00   -7.6923247874E+00   -7.6502894384E+00
   -7.6087109311E+00   -7.5675820722E+00   -7.5268957980E+00   -7.4866448794E+00
   -7.4468221724E+00   -7.4074208289E+00   -7.3684342293E+00   -7.3298558788E+00
   -7.2916793896E+00   -7.2538985131E+00   -7.2165071331E+00   -7.1794992564E+00
   -7.1428690131E+00   -7.1066106525E+00   -7.0707185400E+00   -7.0351871541E+00
   -7.0000110840E+00   -6.9651850263E+00   -6.9307037828E+00   -6.8965622577E+00
   -6.8627554550E+00   -6.8292784764E+00   -6.7961265186E+00   -6.7632948711E+00
   -6.7307789139E+00   -6.6985741156E+00   -6.6666760312E+00   -6.6350802995E+00
   -6.6037826422E+00   -6.5727788609E+00   -6.5420648358E+00   -6.5116365238E+00
   -6.4814899566E+00   -6.4516212393E+00   -6.4220265480E+00   -6.3927021290E+00
   -6.3636442968E+00   -6.3348494325E+00   -6.3063139825E+00   -6.2780344569E+00
   -6.2500074281E+00   -6.2222295296E+00   -6.1946974542E+00   -6.1674079531E+00
   -6.1403578346E+00   -6.1135439627E+00   -6.0869632561E+00   -6.0606126866E+00
   -6.0344892782E+00   -6.0085901058E+00   -5.9829122946E+00   -5.9574530190E+00
   -5.9322095011E+00   -5.9071790096E+00   -5.8823588594E+00   -5.8577464100E+00
   -5.8333390654E+00   -5.8091342722E+00   -5.7851295196E+00   -5.7613223379E+00
   -5.7377102980E+00   -5.7142910103E+00   -5.6910621242E+00   -5.6680213272E+00
   -5.6451663440E+00   -5.6224949359E+00   -5.6000048999E+00   -5.5776940682E+00
   -5.5555603076E+00   -5.5336015182E+00   -5.5118156336E+00   -5.4902006196E+00
   -5.4687544737E+00   -5.4474752248E+00   -5.4263609322E+00   -5.4054096851E+00
   -5.3846196023E+00   -5.3639888314E+00   -5.3435155481E+00   -5.3231979560E+00
   -5.3030342859E+00   -5.2830227953E+00   -5.2631617678E+00   -5.2434495129E+00
   -5.2238843652E+00   -5.2044646840E+00   -5.1851888532E+00   -5.1660552802E+00
   -5.1470623960E+00   -5.1282086546E+00   -5.1094925325E+00   -5.0909125285E+00
   -5.0724671629E+00   -5.0541549776E+00   -5.0359745354E+00   -5.0179244196E+00
   -5.0000032340E+00   -4.9822096021E+00   -4.9645421668E+00   -4.9469995904E+00
   -4.9295805540E+00   -4.9122837571E+00   -4.8951079175E+00   -4.8780517709E+00
   -4.8611140704E+00   -4.8442935864E+00   -4.8275891064E+00   -4.8109994345E+00
   -4.7945233911E+00   -4.7781598128E+00   -4.7619075519E+00   -4.7457654765E+00
   -4.7297324697E+00   -4.7138074299E+00   -4.6979892701E+00   -4.6822769179E+00
   -4.6666693153E+00   -4.6511654183E+00   -4.6357641965E+00   -4.6204646336E+00
   -4.6052657261E+00   -4.5901664842E+00   -4.5751659305E+00   -4.5602631008E+00
   -4.5454570433E+00   -4.5307468182E+00   -4.5161314983E+00   -4.5016101680E+00
   -4.4871819236E+00   -4.4728458729E+00   -4.4586011350E+00   -4.4444468403E+00
   -4.4303821301E+00   -4.4164061567E+00   -4.4025180828E+00   -4.3887170818E+00
   -4.3750023375E+00   -4.3613730436E+00   -4.3478284040E+00   -4.3343676325E+00
   -4.3209899525E+00   -4.3076945970E+00   -4.2944808084E+00   -4.2813478384E+00
   -4.2682949477E+00   -4.2553214062E+00   -4.2424264924E+00   -4.2296094938E+00
   -4.2168697063E+00   -4.2042064342E+00   -4.1916189904E+00   -4.1791066956E+00
   -4.1666688791E+00   -4.1543048777E+00   -4.1420140362E+00   -4.1297957073E+00
   -4.1176492511E+00   -4.1055740352E+00   -4.0935694349E+00   -4.0816348323E+00
   -4.0697696171E+00   -4.0579731860E+00   -4.0462449424E+00   -4.0345842969E+00
   -4.0229906667E+00   -4.0114634758E+00   -4.0000021547E+00   -3.9886061404E+00
   -3.9772748762E+00   -3.9660078119E+00   -3.9548044034E+00   -3.9436641129E+00
   -3.9325864082E+00   -3.9215707637E+00   -3.9106166591E+00   -3.8997235802E+00
   -3.8888910185E+00   -3.8781184710E+00   -3.8674054404E+00   -3.8567514348E+00
   -3.8461559678E+00   -3.8356185581E+00   -3.8251387299E+00   -3.8147160126E+00
   -3.8043499404E+00   -3.7940400530E+00   -3.7837858946E+00   -3.7735870148E+00
   -3.7634429677E+00   -3.7533533122E+00   -3.7433176121E+00   -3.7333354357E+00
   -3.7234063561E+00   -3.7135299505E+00   -3.7037058011E+00   -3.6939334941E+00
   -3.6842126203E+00   -3.6745427747E+00   -3.6649235565E+00   -3.6553545692E+00
   -3.6458354203E+00   -3.6363657215E+00   -3.6269450885E+00   -3.6175731409E+00
   -3.6082495023E+00   -3.5989738001E+00   -3.5897456655E+00   -3.5805647336E+00
   -3.5714306432E+00   -3.5623430366E+00   -3.5533015600E+00   -3.5443058629E+00
   -3.5353555986E+00   -3.5264504238E+00   -3.5175899985E+00   -3.5087739863E+00
   -3.5000020541E+00   -3.4912738722E+00   -3.4825891140E+00   -3.4739474562E+00
   -3.4653485789E+00   -3.4567921651E+00   -3.4482779011E+00   -3.4398054761E+00
   -3.4313745826E+00   -3.4229849159E+00   -3.4146361743E+00   -3.4063280591E+00
   -3.3980602745E+00   -3.3898325276E+00   -3.3816445281E+00   -3.3734959888E+00
   -3.3653866251E+00   -3.3573161552E+00   -3.3492842999E+00   -3.3412907828E+00
   -3.3333353299E+00   -3.3254176701E+00   -3.3175375347E+00   -3.3096946576E+00
   -3.3018887751E+00   -3.2941196261E+00   -3.2863869519E+00   -3.2786904962E+00
   -3.2710300052E+00   -3.2634052274E+00   -3.2558159136E+00   -3.2482618170E+00
   -3.2407426930E+00   -3.2332582993E+00   -3.2258083958E+00   -3.2183927447E+00
   -3.2110111102E+00   -3.2036632589E+00   -3.1963489594E+00   -3.1890679824E+00
   -3.1818201006E+00   -3.1746050890E+00   -3.1674227245E+00   -3.1602727859E+00
   -3.1531550542E+00   -3.1460693122E+00   -3.1390153448E+00   -3.1319929387E+00
   -3.1250018826E+00   -3.1180419670E+00   -3.1111129843E+00   -3.1042147287E+00
   -3.0973469963E+00   -3.0905095850E+00   -3.0837022943E+00   -3.0769249258E+00
   -3.0701772825E+00   -3.0634591693E+00   -3.0567703929E+00   -3.0501107613E+00
   -3.0434800846E+00   -3.0368781744E+00   -3.0303048438E+00   -3.0237599077E+00
   -3.0172431824E+00   -3.0107544861E+00   -3.0042936381E+00   -2.9978604597E+00
   -2.9914547735E+00   -2.9850764036E+00   -2.9787251756E+00   -2.9724009167E+00
   -2.9661034555E+00   -2.9598326219E+00   -2.9535882476E+00   -2.9473701653E+00
   -2.9411782093E+00   -2.9350122154E+00   -2.9288720206E+00   -2.9227574632E+00
   -2.9166683832E+00   -2.9106046216E+00   -2.9045660207E+00   -2.8985524244E+00
   -2.8925636776E+00   -2.8865996266E+00   -2.8806601190E+00   -2.8747450036E+00
   -2.8688541305E+00   -2.8629873508E+00   -2.8571445172E+00   -2.8513254833E+00
   -2.8455301039E+00   -2.8397582352E+00   -2.8340097343E+00   -2.8282844597E+00
   -2.8225822708E+00   -2.8169030283E+00   -2.8112465940E+00   -2.8056128307E+00
   -2.8000016025E+00   -2.7944127743E+00   -2.7888462124E+00   -2.7833017839E+00
   -2.7777793570E+00   -2.7722788011E+00   -2.7667999866E+00   -2.7613427847E+00
   -2.7559070678E+00   -2.7504927093E+00   -2.7450995835E+00   -2.7397275659E+00
   -2.7343765326E+00   -2.7290463611E+00   -2.7237369295E+00   -2.7184481171E+00
   -2.7131798039E+00   -2.7079318710E+00   -2.7027042004E+00   -2.6974966749E+00
   -2.6923091784E+00   -2.6871415954E+00   -2.6819938116E+00   -2.6768657134E+00
   -2.6717571880E+00   -2.6666681237E+00   -2.6615984094E+00   -2.6565479350E+00