<UPF version="2.0.1">
  <PP_INFO>

 This pseudopotential file has been produced using the code
 ONCVPSP  (Optimized Norm-Conservinng Vanderbilt PSeudopotential)
 fully-relativistic version 3.3.0 08/16/2017 by D. R. Hamann
 The code is available through a link at URL www.mat-simresearch.com.
 Documentation with the package provides a full discription of the
 input data below.


 While it is not required under the terms of the GNU GPL, it is
 suggested that you cite D. R. Hamann, Phys. Rev. B 88, 085117 (2013)
 in any publication using these pseudopotentials.

    <PP_INPUTFILE>
# ATOM AND REFERENCE CONFIGURATION
# atsym  z   nc   nv     iexc    psfile
  He  2.00    0    1       4      upf
#
#   n    l    f        energy (Ha)
    1    0    2.00
#
# PSEUDOPOTENTIAL AND OPTIMIZATION
# lmax
    1
#
#   l,   rc,     ep,   ncon, nbas, qcut
    0   1.25000  -0.57931    4    8   9.40000
    1   1.13000   0.05000    4    7   9.40000
#
# LOCAL POTENTIAL
# lloc, lpopt,  rc(5),   dvloc0
    4    5   1.00000      0.00000
#
# VANDERBILT-KLEINMAN-BYLANDER PROJECTORs
# l, nproj, debl
    0    2   1.00000
    1    1   1.00000
#
# MODEL CORE CHARGE
# icmod, fcfact, rcfact
    0   0.00000   0.00000
#
# LOG DERIVATIVE ANALYSIS
# epsh1, epsh2, depsh
  -12.00   12.00    0.02
#
# OUTPUT GRID
# rlmax, drl
    6.00    0.01
#
# TEST CONFIGURATIONS
# ncnf
    0
# nvcnf
#   n    l    f
    </PP_INPUTFILE>
  </PP_INFO>
  <!--                               -->
  <!-- END OF HUMAN READABLE SECTION -->
  <!--                               -->
    <PP_HEADER
       generated="Generated using ONCVPSP code by D. R. Hamann"
       author="anonymous"
       date="170818"
       comment=""
       element="He"
       pseudo_type="NC"
       relativistic="full"
       is_ultrasoft="F"
       is_paw="F"
       is_coulomb="F"
       has_so="T"
       has_wfc="F"
       has_gipaw="F"
       core_correction="F"
       functional="PBE"
       z_valence="    2.00"
       total_psenergy="  -5.71695046994E+00"
       rho_cutoff="   7.21000000000E+00"
       l_max="1"
       l_local="-1"
       mesh_size="   722"
       number_of_wfc="1"
       number_of_proj="4"/>
 <PP_MESH>
   <PP_R type="real"  size=" 722" columns="8">
    0.0000    0.0100    0.0200    0.0300    0.0400    0.0500    0.0600    0.0700
    0.0800    0.0900    0.1000    0.1100    0.1200    0.1300    0.1400    0.1500
    0.1600    0.1700    0.1800    0.1900    0.2000    0.2100    0.2200    0.2300
    0.2400    0.2500    0.2600    0.2700    0.2800    0.2900    0.3000    0.3100
    0.3200    0.3300    0.3400    0.3500    0.3600    0.3700    0.3800    0.3900
    0.4000    0.4100    0.4200    0.4300    0.4400    0.4500    0.4600    0.4700
    0.4800    0.4900    0.5000    0.5100    0.5200    0.5300    0.5400    0.5500
    0.5600    0.5700    0.5800    0.5900    0.6000    0.6100    0.6200    0.6300
    0.6400    0.6500    0.6600    0.6700    0.6800    0.6900    0.7000    0.7100
    0.7200    0.7300    0.7400    0.7500    0.7600    0.7700    0.7800    0.7900
    0.8000    0.8100    0.8200    0.8300    0.8400    0.8500    0.8600    0.8700
    0.8800    0.8900    0.9000    0.9100    0.9200    0.9300    0.9400    0.9500
    0.9600    0.9700    0.9800    0.9900    1.0000    1.0100    1.0200    1.0300
    1.0400    1.0500    1.0600    1.0700    1.0800    1.0900    1.1000    1.1100
    1.1200    1.1300    1.1400    1.1500    1.1600    1.1700    1.1800    1.1900
    1.2000    1.2100    1.2200    1.2300    1.2400    1.2500    1.2600    1.2700
    1.2800    1.2900    1.3000    1.3100    1.3200    1.3300    1.3400    1.3500
    1.3600    1.3700    1.3800    1.3900    1.4000    1.4100    1.4200    1.4300
    1.4400    1.4500    1.4600    1.4700    1.4800    1.4900    1.5000    1.5100
    1.5200    1.5300    1.5400    1.5500    1.5600    1.5700    1.5800    1.5900
    1.6000    1.6100    1.6200    1.6300    1.6400    1.6500    1.6600    1.6700
    1.6800    1.6900    1.7000    1.7100    1.7200    1.7300    1.7400    1.7500
    1.7600    1.7700    1.7800    1.7900    1.8000    1.8100    1.8200    1.8300
    1.8400    1.8500    1.8600    1.8700    1.8800    1.8900    1.9000    1.9100
    1.9200    1.9300    1.9400    1.9500    1.9600    1.9700    1.9800    1.9900
    2.0000    2.0100    2.0200    2.0300    2.0400    2.0500    2.0600    2.0700
    2.0800    2.0900    2.1000    2.1100    2.1200    2.1300    2.1400    2.1500
    2.1600    2.1700    2.1800    2.1900    2.2000    2.2100    2.2200    2.2300
    2.2400    2.2500    2.2600    2.2700    2.2800    2.2900    2.3000    2.3100
    2.3200    2.3300    2.3400    2.3500    2.3600    2.3700    2.3800    2.3900
    2.4000    2.4100    2.4200    2.4300    2.4400    2.4500    2.4600    2.4700
    2.4800    2.4900    2.5000    2.5100    2.5200    2.5300    2.5400    2.5500
    2.5600    2.5700    2.5800    2.5900    2.6000    2.6100    2.6200    2.6300
    2.6400    2.6500    2.6600    2.6700    2.6800    2.6900    2.7000    2.7100
    2.7200    2.7300    2.7400    2.7500    2.7600    2.7700    2.7800    2.7900
    2.8000    2.8100    2.8200    2.8300    2.8400    2.8500    2.8600    2.8700
    2.8800    2.8900    2.9000    2.9100    2.9200    2.9300    2.9400    2.9500
    2.9600    2.9700    2.9800    2.9900    3.0000    3.0100    3.0200    3.0300
    3.0400    3.0500    3.0600    3.0700    3.0800    3.0900    3.1000    3.1100
    3.1200    3.1300    3.1400    3.1500    3.1600    3.1700    3.1800    3.1900
    3.2000    3.2100    3.2200    3.2300    3.2400    3.2500    3.2600    3.2700
    3.2800    3.2900    3.3000    3.3100    3.3200    3.3300    3.3400    3.3500
    3.3600    3.3700    3.3800    3.3900    3.4000    3.4100    3.4200    3.4300
    3.4400    3.4500    3.4600    3.4700    3.4800    3.4900    3.5000    3.5100
    3.5200    3.5300    3.5400    3.5500    3.5600    3.5700    3.5800    3.5900
    3.6000    3.6100    3.6200    3.6300    3.6400    3.6500    3.6600    3.6700
    3.6800    3.6900    3.7000    3.7100    3.7200    3.7300    3.7400    3.7500
    3.7600    3.7700    3.7800    3.7900    3.8000    3.8100    3.8200    3.8300
    3.8400    3.8500    3.8600    3.8700    3.8800    3.8900    3.9000    3.9100
    3.9200    3.9300    3.9400    3.9500    3.9600    3.9700    3.9800    3.9900
    4.0000    4.0100    4.0200    4.0300    4.0400    4.0500    4.0600    4.0700
    4.0800    4.0900    4.1000    4.1100    4.1200    4.1300    4.1400    4.1500
    4.1600    4.1700    4.1800    4.1900    4.2000    4.2100    4.2200    4.2300
    4.2400    4.2500    4.2600    4.2700    4.2800    4.2900    4.3000    4.3100
    4.3200    4.3300    4.3400    4.3500    4.3600    4.3700    4.3800    4.3900
    4.4000    4.4100    4.4200    4.4300    4.4400    4.4500    4.4600    4.4700
    4.4800    4.4900    4.5000    4.5100    4.5200    4.5300    4.5400    4.5500
    4.5600    4.5700    4.5800    4.5900    4.6000    4.6100    4.6200    4.6300
    4.6400    4.6500    4.6600    4.6700    4.6800    4.6900    4.7000    4.7100
    4.7200    4.7300    4.7400    4.7500    4.7600    4.7700    4.7800    4.7900
    4.8000    4.8100    4.8200    4.8300    4.8400    4.8500    4.8600    4.8700
    4.8800    4.8900    4.9000    4.9100    4.9200    4.9300    4.9400    4.9500
    4.9600    4.9700    4.9800    4.9900    5.0000    5.0100    5.0200    5.0300
    5.0400    5.0500    5.0600    5.0700    5.0800    5.0900    5.1000    5.1100
    5.1200    5.1300    5.1400    5.1500    5.1600    5.1700    5.1800    5.1900
    5.2000    5.2100    5.2200    5.2300    5.2400    5.2500    5.2600    5.2700
    5.2800    5.2900    5.3000    5.3100    5.3200    5.3300    5.3400    5.3500
    5.3600    5.3700    5.3800    5.3900    5.4000    5.4100    5.4200    5.4300
    5.4400    5.4500    5.4600    5.4700    5.4800    5.4900    5.5000    5.5100
    5.5200    5.5300    5.5400    5.5500    5.5600    5.5700    5.5800    5.5900
    5.6000    5.6100    5.6200    5.6300    5.6400    5.6500    5.6600    5.6700
    5.6800    5.6900    5.7000    5.7100    5.7200    5.7300    5.7400    5.7500
    5.7600    5.7700    5.7800    5.7900    5.8000    5.8100    5.8200    5.8300
    5.8400    5.8500    5.8600    5.8700    5.8800    5.8900    5.9000    5.9100
    5.9200    5.9300    5.9400    5.9500    5.9600    5.9700    5.9800    5.9900
    6.0000    6.0100    6.0200    6.0300    6.0400    6.0500    6.0600    6.0700
    6.0800    6.0900    6.1000    6.1100    6.1200    6.1300    6.1400    6.1500
    6.1600    6.1700    6.1800    6.1900    6.2000    6.2100    6.2200    6.2300
    6.2400    6.2500    6.2600    6.2700    6.2800    6.2900    6.3000    6.3100
    6.3200    6.3300    6.3400    6.3500    6.3600    6.3700    6.3800    6.3900
    6.4000    6.4100    6.4200    6.4300    6.4400    6.4500    6.4600    6.4700
    6.4800    6.4900    6.5000    6.5100    6.5200    6.5300    6.5400    6.5500
    6.5600    6.5700    6.5800    6.5900    6.6000    6.6100    6.6200    6.6300
    6.6400    6.6500    6.6600    6.6700    6.6800    6.6900    6.7000    6.7100
    6.7200    6.7300    6.7400    6.7500    6.7600    6.7700    6.7800    6.7900
    6.8000    6.8100    6.8200    6.8300    6.8400    6.8500    6.8600    6.8700
    6.8800    6.8900    6.9000    6.9100    6.9200    6.9300    6.9400    6.9500
    6.9600    6.9700    6.9800    6.9900    7.0000    7.0100    7.0200    7.0300
    7.0400    7.0500    7.0600    7.0700    7.0800    7.0900    7.1000    7.1100
    7.1200    7.1300    7.1400    7.1500    7.1600    7.1700    7.1800    7.1900
    7.2000    7.2100
   </PP_R>
   <PP_RAB type="real"  size=" 722" columns="8">
    0.0100    0.0100    0.0100    0.0100    0.0100    0.0100    0.0100    0.0100
    0.0100    0.0100    0.0100    0.0100    0.0100    0.0100    0.0100    0.0100
    0.0100    0.0100    0.0100    0.0100    0.0100    0.0100    0.0100    0.0100
    0.0100    0.0100    0.0100    0.0100    0.0100    0.0100    0.0100    0.0100
    0.0100    0.0100    0.0100    0.0100    0.0100    0.0100    0.0100    0.0100
    0.0100    0.0100    0.0100    0.0100    0.0100    0.0100    0.0100    0.0100
    0.0100    0.0100    0.0100    0.0100    0.0100    0.0100    0.0100    0.0100
    0.0100    0.0100    0.0100    0.0100    0.0100    0.0100    0.0100    0.0100
    0.0100    0.0100    0.0100    0.0100    0.0100    0.0100    0.0100    0.0100
    0.0100    0.0100    0.0100    0.0100    0.0100    0.0100    0.0100    0.0100
    0.0100    0.0100    0.0100    0.0100    0.0100    0.0100    0.0100    0.0100
    0.0100    0.0100    0.0100    0.0100    0.0100    0.0100    0.0100    0.0100
    0.0100    0.0100    0.0100    0.0100    0.0100    0.0100    0.0100    0.0100
    0.0100    0.0100    0.0100    0.0100    0.0100    0.0100    0.0100    0.0100
    0.0100    0.0100    0.0100    0.0100    0.0100    0.0100    0.0100    0.0100
    0.0100    0.0100    0.0100    0.0100    0.0100    0.0100    0.0100    0.0100
    0.0100    0.0100    0.0100    0.0100    0.0100    0.0100    0.0100    0.0100
    0.0100    0.0100    0.0100    0.0100    0.0100    0.0100    0.0100    0.0100
    0.0100    0.0100    0.0100    0.0100    0.0100    0.0100    0.0100    0.0100
    0.0100    0.0100    0.0100    0.0100    0.0100    0.0100    0.0100    0.0100
    0.0100    0.0100    0.0100    0.0100    0.0100    0.0100    0.0100    0.0100
    0.0100    0.0100    0.0100    0.0100    0.0100    0.0100    0.0100    0.0100
    0.0100    0.0100    0.0100    0.0100    0.0100    0.0100    0.0100    0.0100
    0.0100    0.0100    0.0100    0.0100    0.0100    0.0100    0.0100    0.0100
    0.0100    0.0100    0.0100    0.0100    0.0100    0.0100    0.0100    0.0100
    0.0100    0.0100    0.0100    0.0100    0.0100    0.0100    0.0100    0.0100
    0.0100    0.0100    0.0100    0.0100    0.0100    0.0100    0.0100    0.0100
    0.0100    0.0100    0.0100    0.0100    0.0100    0.0100    0.0100    0.0100
    0.0100    0.0100    0.0100    0.0100    0.0100    0.0100    0.0100    0.0100
    0.0100    0.0100    0.0100    0.0100    0.0100    0.0100    0.0100    0.0100
    0.0100    0.0100    0.0100    0.0100    0.0100    0.0100    0.0100    0.0100
    0.0100    0.0100    0.0100    0.0100    0.0100    0.0100    0.0100    0.0100
    0.0100    0.0100    0.0100    0.0100    0.0100    0.0100    0.0100    0.0100
    0.0100    0.0100    0.0100    0.0100    0.0100    0.0100    0.0100    0.0100
    0.0100    0.0100    0.0100    0.0100    0.0100    0.0100    0.0100    0.0100
    0.0100    0.0100    0.0100    0.0100    0.0100    0.0100    0.0100    0.0100
    0.0100    0.0100    0.0100    0.0100    0.0100    0.0100    0.0100    0.0100
    0.0100    0.0100    0.0100    0.0100    0.0100    0.0100    0.0100    0.0100
    0.0100    0.0100    0.0100    0.0100    0.0100    0.0100    0.0100    0.0100
    0.0100    0.0100    0.0100    0.0100    0.0100    0.0100    0.0100    0.0100
    0.0100    0.0100    0.0100    0.0100    0.0100    0.0100    0.0100    0.0100
    0.0100    0.0100    0.0100    0.0100    0.0100    0.0100    0.0100    0.0100
    0.0100    0.0100    0.0100    0.0100    0.0100    0.0100    0.0100    0.0100
    0.0100    0.0100    0.0100    0.0100    0.0100    0.0100    0.0100    0.0100
    0.0100    0.0100    0.0100    0.0100    0.0100    0.0100    0.0100    0.0100
    0.0100    0.0100    0.0100    0.0100    0.0100    0.0100    0.0100    0.0100
    0.0100    0.0100    0.0100    0.0100    0.0100    0.0100    0.0100    0.0100
    0.0100    0.0100    0.0100    0.0100    0.0100    0.0100    0.0100    0.0100
    0.0100    0.0100    0.0100    0.0100    0.0100    0.0100    0.0100    0.0100
    0.0100    0.0100    0.0100    0.0100    0.0100    0.0100    0.0100    0.0100
    0.0100    0.0100    0.0100    0.0100    0.0100    0.0100    0.0100    0.0100
    0.0100    0.0100    0.0100    0.0100    0.0100    0.0100    0.0100    0.0100
    0.0100    0.0100    0.0100    0.0100    0.0100    0.0100    0.0100    0.0100
    0.0100    0.0100    0.0100    0.0100    0.0100    0.0100    0.0100    0.0100
    0.0100    0.0100    0.0100    0.0100    0.0100    0.0100    0.0100    0.0100
    0.0100    0.0100    0.0100    0.0100    0.0100    0.0100    0.0100    0.0100
    0.0100    0.0100    0.0100    0.0100    0.0100    0.0100    0.0100    0.0100
    0.0100    0.0100    0.0100    0.0100    0.0100    0.0100    0.0100    0.0100
    0.0100    0.0100    0.0100    0.0100    0.0100    0.0100    0.0100    0.0100
    0.0100    0.0100    0.0100    0.0100    0.0100    0.0100    0.0100    0.0100
    0.0100    0.0100    0.0100    0.0100    0.0100    0.0100    0.0100    0.0100
    0.0100    0.0100    0.0100    0.0100    0.0100    0.0100    0.0100    0.0100
    0.0100    0.0100    0.0100    0.0100    0.0100    0.0100    0.0100    0.0100
    0.0100    0.0100    0.0100    0.0100    0.0100    0.0100    0.0100    0.0100
    0.0100    0.0100    0.0100    0.0100    0.0100    0.0100    0.0100    0.0100
    0.0100    0.0100    0.0100    0.0100    0.0100    0.0100    0.0100    0.0100
    0.0100    0.0100    0.0100    0.0100    0.0100    0.0100    0.0100    0.0100
    0.0100    0.0100    0.0100    0.0100    0.0100    0.0100    0.0100    0.0100
    0.0100    0.0100    0.0100    0.0100    0.0100    0.0100    0.0100    0.0100
    0.0100    0.0100    0.0100    0.0100    0.0100    0.0100    0.0100    0.0100
    0.0100    0.0100    0.0100    0.0100    0.0100    0.0100    0.0100    0.0100
    0.0100    0.0100    0.0100    0.0100    0.0100    0.0100    0.0100    0.0100
    0.0100    0.0100    0.0100    0.0100    0.0100    0.0100    0.0100    0.0100
    0.0100    0.0100    0.0100    0.0100    0.0100    0.0100    0.0100    0.0100
    0.0100    0.0100    0.0100    0.0100    0.0100    0.0100    0.0100    0.0100
    0.0100    0.0100    0.0100    0.0100    0.0100    0.0100    0.0100    0.0100
    0.0100    0.0100    0.0100    0.0100    0.0100    0.0100    0.0100    0.0100
    0.0100    0.0100    0.0100    0.0100    0.0100    0.0100    0.0100    0.0100
    0.0100    0.0100    0.0100    0.0100    0.0100    0.0100    0.0100    0.0100
    0.0100    0.0100    0.0100    0.0100    0.0100    0.0100    0.0100    0.0100
    0.0100    0.0100    0.0100    0.0100    0.0100    0.0100    0.0100    0.0100
    0.0100    0.0100    0.0100    0.0100    0.0100    0.0100    0.0100    0.0100
    0.0100    0.0100    0.0100    0.0100    0.0100    0.0100    0.0100    0.0100
    0.0100    0.0100    0.0100    0.0100    0.0100    0.0100    0.0100    0.0100
    0.0100    0.0100    0.0100    0.0100    0.0100    0.0100    0.0100    0.0100
    0.0100    0.0100    0.0100    0.0100    0.0100    0.0100    0.0100    0.0100
    0.0100    0.0100    0.0100    0.0100    0.0100    0.0100    0.0100    0.0100
    0.0100    0.0100    0.0100    0.0100    0.0100    0.0100    0.0100    0.0100
    0.0100    0.0100    0.0100    0.0100    0.0100    0.0100    0.0100    0.0100
    0.0100    0.0100    0.0100    0.0100    0.0100    0.0100    0.0100    0.0100
    0.0100    0.0100
   </PP_RAB>
 </PP_MESH>
  <PP_LOCAL type="real"  size=" 722" columns="4">
   -8.8529539965E+00   -8.8515932053E+00   -8.8475171092E+00   -8.8407445660E+00
   -8.8313065317E+00   -8.8192454101E+00   -8.8046141715E+00   -8.7874752827E+00
   -8.7678994961E+00   -8.7459645422E+00   -8.7217537749E+00   -8.6953548138E+00
   -8.6668582267E+00   -8.6363562863E+00   -8.6039418310E+00   -8.5697072503E+00
   -8.5337436081E+00   -8.4961399110E+00   -8.4569825205E+00   -8.4163547050E+00
   -8.3743363206E+00   -8.3310036092E+00   -8.2864290991E+00   -8.2406815921E+00
   -8.1938262219E+00   -8.1459245684E+00   -8.0970348153E+00   -8.0472119358E+00
   -7.9965078980E+00   -7.9449718796E+00   -7.8926504839E+00   -7.8395879525E+00
   -7.7858263686E+00   -7.7314058490E+00   -7.6763647217E+00   -7.6207396886E+00
   -7.5645659737E+00   -7.5078774552E+00   -7.4507067836E+00   -7.3930854875E+00
   -7.3350440670E+00   -7.2766120768E+00   -7.2178182015E+00   -7.1586903227E+00
   -7.0992555819E+00   -7.0395404379E+00   -6.9795707224E+00   -6.9193716930E+00
   -6.8589680860E+00   -6.7983841685E+00   -6.7376437913E+00   -6.6767704426E+00
   -6.6157873015E+00   -6.5547172941E+00   -6.4935831483E+00   -6.4324074501E+00
   -6.3712126986E+00   -6.3100213604E+00   -6.2488559215E+00   -6.1877389372E+00
   -6.1266930771E+00   -6.0657411666E+00   -6.0049062217E+00   -5.9442114781E+00
   -5.8836804119E+00   -5.8233367535E+00   -5.7632044908E+00   -5.7033078650E+00
   -5.6436713558E+00   -5.5843196563E+00   -5.5252776395E+00   -5.4665703135E+00
   -5.4082227684E+00   -5.3502601138E+00   -5.2927074081E+00   -5.2355895801E+00
   -5.1789313442E+00   -5.1227571087E+00   -5.0670908807E+00   -5.0119561660E+00
   -4.9573758663E+00   -4.9033721748E+00   -4.8499664710E+00   -4.7971792148E+00
   -4.7450298424E+00   -4.6935366629E+00   -4.6427167583E+00   -4.5925858852E+00
   -4.5431583800E+00   -4.4944470681E+00   -4.4464631761E+00   -4.3992162470E+00
   -4.3527140597E+00   -4.3069625502E+00   -4.2619657357E+00   -4.2177256398E+00
   -4.1742422183E+00   -4.1315132849E+00   -4.0895344342E+00   -4.0482989623E+00
   -4.0077978149E+00   -3.9680193731E+00   -3.9289499025E+00   -3.8905751735E+00
   -3.8528818903E+00   -3.8158576555E+00   -3.7794908508E+00   -3.7437705467E+00
   -3.7086863968E+00   -3.6742285233E+00   -3.6403873999E+00   -3.6071537298E+00
   -3.5745183225E+00   -3.5424719701E+00   -3.5110053262E+00   -3.4801087902E+00
   -3.4497723984E+00   -3.4199857293E+00   -3.3907378192E+00   -3.3620170961E+00
   -3.3338113345E+00   -3.3061076343E+00   -3.2788924022E+00   -3.2521513889E+00
   -3.2258698272E+00   -3.2000323281E+00   -3.1746226666E+00   -3.1496233260E+00
   -3.1250178911E+00   -3.1007929045E+00   -3.0769401126E+00   -3.0534518761E+00
   -3.0303194847E+00   -3.0075349299E+00   -2.9850904519E+00   -2.9629784879E+00
   -2.9411917024E+00   -2.9197229749E+00   -2.8985653910E+00   -2.8777122352E+00
   -2.8571569840E+00   -2.8368932990E+00   -2.8169150200E+00   -2.7972161596E+00
   -2.7777908964E+00   -2.7586335696E+00   -2.7397386738E+00   -2.7211008531E+00
   -2.7027148964E+00   -2.6845757325E+00   -2.6666784257E+00   -2.6490181707E+00
   -2.6315902888E+00   -2.6143902236E+00   -2.5974135371E+00   -2.5806559059E+00
   -2.5641131172E+00   -2.5477810658E+00   -2.5316557503E+00   -2.5157332701E+00
   -2.5000098218E+00   -2.4844816969E+00   -2.4691452782E+00   -2.4539970374E+00
   -2.4390335322E+00   -2.4242514038E+00   -2.4096473742E+00   -2.3952182441E+00
   -2.3809608902E+00   -2.3668722633E+00   -2.3529493859E+00   -2.3391893501E+00
   -2.3255893156E+00   -2.3121465078E+00   -2.2988582160E+00   -2.2857217913E+00
   -2.2727346450E+00   -2.2598942471E+00   -2.2471981243E+00   -2.2346438585E+00
   -2.2222290855E+00   -2.2099514933E+00   -2.1978088207E+00   -2.1857988558E+00
   -2.1739194351E+00   -2.1621684415E+00   -2.1505438037E+00   -2.1390434946E+00
   -2.1276655302E+00   -2.1164079686E+00   -2.1052689087E+00   -2.0942464892E+00
   -2.0833388877E+00   -2.0725443194E+00   -2.0618610364E+00   -2.0512873266E+00
   -2.0408215130E+00   -2.0304619523E+00   -2.0202070348E+00   -2.0100551829E+00
   -2.0000048507E+00   -1.9900545229E+00   -1.9802027143E+00   -1.9704479690E+00
   -1.9607888596E+00   -1.9512239866E+00   -1.9417519775E+00   -1.9323714866E+00
   -1.9230811939E+00   -1.9138798046E+00   -1.9047660487E+00   -1.8957386803E+00
   -1.8867964768E+00   -1.8779382388E+00   -1.8691627892E+00   -1.8604689729E+00
   -1.8518556559E+00   -1.8433217254E+00   -1.8348660889E+00   -1.8264876740E+00
   -1.8181854275E+00   -1.8099583155E+00   -1.8018053228E+00   -1.7937254520E+00
   -1.7857177240E+00   -1.7777811768E+00   -1.7699148655E+00   -1.7621178619E+00
   -1.7543892541E+00   -1.7467281460E+00   -1.7391336571E+00   -1.7316049223E+00
   -1.7241410914E+00   -1.7167413285E+00   -1.7094048123E+00   -1.7021307354E+00
   -1.6949183041E+00   -1.6877667380E+00   -1.6806752700E+00   -1.6736431455E+00
   -1.6666696228E+00   -1.6597539725E+00   -1.6528954770E+00   -1.6460934307E+00
   -1.6393471397E+00   -1.6326559210E+00   -1.6260191032E+00   -1.6194360255E+00
   -1.6129060377E+00   -1.6064285002E+00   -1.6000027836E+00   -1.5936282684E+00
   -1.5873043453E+00   -1.5810304141E+00   -1.5748058845E+00   -1.5686301752E+00
   -1.5625027141E+00   -1.5564229380E+00   -1.5503902924E+00   -1.5444042314E+00
   -1.5384642173E+00   -1.5325697210E+00   -1.5267202213E+00   -1.5209152048E+00
   -1.5151541660E+00   -1.5094366071E+00   -1.5037620376E+00   -1.4981299746E+00
   -1.4925399422E+00   -1.4869914716E+00   -1.4814841010E+00   -1.4760173755E+00
   -1.4705908467E+00   -1.4652040729E+00   -1.4598566188E+00   -1.4545480555E+00
   -1.4492779602E+00   -1.4440459162E+00   -1.4388515130E+00   -1.4336943458E+00
   -1.4285740156E+00   -1.4234901292E+00   -1.4184422987E+00   -1.4134301421E+00
   -1.4084532824E+00   -1.4035113482E+00   -1.3986039729E+00   -1.3937307954E+00
   -1.3888914595E+00   -1.3840856138E+00   -1.3793129119E+00   -1.3745730121E+00
   -1.3698655773E+00   -1.3651902752E+00   -1.3605467779E+00   -1.3559347618E+00
   -1.3513539081E+00   -1.3468039017E+00   -1.3422844323E+00   -1.3377951934E+00
   -1.3333358827E+00   -1.3289062020E+00   -1.3245058568E+00   -1.3201345567E+00
   -1.3157920151E+00   -1.3114779491E+00   -1.3071920795E+00   -1.3029341308E+00
   -1.2987038310E+00   -1.2945009117E+00   -1.2903251080E+00   -1.2861761581E+00
   -1.2820538040E+00   -1.2779577908E+00   -1.2738878666E+00   -1.2698437832E+00
   -1.2658252950E+00   -1.2618321601E+00   -1.2578641390E+00   -1.2539209957E+00
   -1.2500024969E+00   -1.2461084124E+00   -1.2422385145E+00   -1.2383925788E+00
   -1.2345703832E+00   -1.2307717088E+00   -1.2269963389E+00   -1.2232440599E+00
   -1.2195146605E+00   -1.2158079321E+00   -1.2121236686E+00   -1.2084616664E+00
   -1.2048217242E+00   -1.2012036435E+00   -1.1976072278E+00   -1.1940322831E+00
   -1.1904786177E+00   -1.1869460422E+00   -1.1834343693E+00   -1.1799434142E+00
   -1.1764729939E+00   -1.1730229279E+00   -1.1695930376E+00   -1.1661831465E+00
   -1.1627930803E+00   -1.1594226665E+00   -1.1560717347E+00   -1.1527401165E+00
   -1.1494276454E+00   -1.1461341569E+00   -1.1428594881E+00   -1.1396034783E+00
   -1.1363659685E+00   -1.1331468014E+00   -1.1299458215E+00   -1.1267628752E+00
   -1.1235978105E+00   -1.1204504772E+00   -1.1173207266E+00   -1.1142084118E+00
   -1.1111133876E+00   -1.1080355102E+00   -1.1049746376E+00   -1.1019306291E+00
   -1.0989033459E+00   -1.0958926504E+00   -1.0928984067E+00   -1.0899204803E+00
   -1.0869587382E+00   -1.0840130488E+00   -1.0810832820E+00   -1.0781693089E+00
   -1.0752710023E+00   -1.0723882361E+00   -1.0695208857E+00   -1.0666688277E+00
   -1.0638319402E+00   -1.0610101024E+00   -1.0582031948E+00   -1.0554110994E+00
   -1.0526336991E+00   -1.0498708782E+00   -1.0471225223E+00   -1.0443885181E+00
   -1.0416687533E+00   -1.0389631172E+00   -1.0362714998E+00   -1.0335937925E+00
   -1.0309298878E+00   -1.0282796792E+00   -1.0256430613E+00   -1.0230199299E+00
   -1.0204101817E+00   -1.0178137146E+00   -1.0152304275E+00   -1.0126602203E+00
   -1.0101029939E+00   -1.0075586501E+00   -1.0050270920E+00   -1.0025082233E+00
   -1.0000019489E+00   -9.9750817456E-01   -9.9502680701E-01   -9.9255775389E-01
   -9.9010092375E-01   -9.8765622606E-01   -9.8522357116E-01   -9.8280287030E-01
   -9.8039403557E-01   -9.7799697994E-01   -9.7561161722E-01   -9.7323786206E-01
   -9.7087562994E-01   -9.6852483716E-01   -9.6618540083E-01   -9.6385723886E-01
   -9.6154026993E-01   -9.5923441353E-01   -9.5693958989E-01   -9.5465572004E-01
   -9.5238272572E-01   -9.5012052944E-01   -9.4786905444E-01   -9.4562822467E-01
   -9.4339796483E-01   -9.4117820031E-01   -9.3896885718E-01   -9.3676986223E-01
   -9.3458114294E-01   -9.3240262744E-01   -9.3023424455E-01   -9.2807592373E-01
   -9.2592759511E-01   -9.2378918947E-01   -9.2166063821E-01   -9.1954187337E-01
   -9.1743282761E-01   -9.1533343422E-01   -9.1324362708E-01   -9.1116334068E-01
   -9.0909251011E-01   -9.0703107104E-01   -9.0497895974E-01   -9.0293611303E-01
   -9.0090246832E-01   -8.9887796357E-01   -8.9686253730E-01   -8.9485612859E-01
   -8.9285867704E-01   -8.9087012282E-01   -8.8889040660E-01   -8.8691946960E-01
   -8.8495725355E-01   -8.8300370070E-01   -8.8105875379E-01   -8.7912235610E-01
   -8.7719445136E-01   -8.7527498384E-01   -8.7336389826E-01   -8.7146113985E-01
   -8.6956665429E-01   -8.6768038775E-01   -8.6580228687E-01   -8.6393229872E-01
   -8.6207037086E-01   -8.6021645129E-01   -8.5837048845E-01   -8.5653243123E-01
   -8.5470222895E-01   -8.5287983137E-01   -8.5106518867E-01   -8.4925825145E-01
   -8.4745897075E-01   -8.4566729800E-01   -8.4388318505E-01   -8.4210658415E-01
   -8.4033744796E-01   -8.3857572953E-01   -8.3682138230E-01   -8.3507436012E-01
   -8.3333461720E-01   -8.3160210814E-01   -8.2987678791E-01   -8.2815861186E-01
   -8.2644753572E-01   -8.2474351557E-01   -8.2304650785E-01   -8.2135646936E-01
   -8.1967335726E-01   -8.1799712905E-01   -8.1632774260E-01   -8.1466515610E-01
   -8.1300932808E-01   -8.1136021742E-01   -8.0971778332E-01   -8.0808198533E-01
   -8.0645278330E-01   -8.0483013743E-01   -8.0321400820E-01   -8.0160435646E-01
   -8.0000114332E-01   -7.9840433025E-01   -7.9681387898E-01   -7.9522975159E-01
   -7.9365191041E-01   -7.9208031813E-01   -7.9051493767E-01   -7.8895573229E-01
   -7.8740266553E-01   -7.8585570119E-01   -7.8431480339E-01   -7.8277993650E-01
   -7.8125106520E-01   -7.7972815442E-01   -7.7821116936E-01   -7.7670007552E-01
   -7.7519483864E-01   -7.7369542474E-01   -7.7220180008E-01   -7.7071393122E-01
   -7.6923178493E-01   -7.6775532828E-01   -7.6628452855E-01   -7.6481935331E-01
   -7.6335977035E-01   -7.6190574771E-01   -7.6045725368E-01   -7.5901425680E-01
   -7.5757672582E-01   -7.5614462975E-01   -7.5471793783E-01   -7.5329661952E-01
   -7.5188064452E-01   -7.5046998276E-01   -7.4906460439E-01   -7.4766447978E-01
   -7.4626957952E-01   -7.4487987443E-01   -7.4349533554E-01   -7.4211593410E-01
   -7.4074164157E-01   -7.3937242960E-01   -7.3800827009E-01   -7.3664913512E-01
   -7.3529499698E-01   -7.3394582817E-01   -7.3260160137E-01   -7.3126228950E-01
   -7.2992786563E-01   -7.2859830306E-01   -7.2727357528E-01   -7.2595365596E-01
   -7.2463851896E-01   -7.2332813835E-01   -7.2202248837E-01   -7.2072154344E-01
   -7.1942527818E-01   -7.1813366738E-01   -7.1684668603E-01   -7.1556430927E-01
   -7.1428651244E-01   -7.1301327105E-01   -7.1174456078E-01   -7.1048035748E-01
   -7.0922063718E-01   -7.0796537609E-01   -7.0671455055E-01   -7.0546813711E-01
   -7.0422611247E-01   -7.0298845347E-01   -7.0175513715E-01   -7.0052614069E-01
   -6.9930144143E-01   -6.9808101687E-01   -6.9686484468E-01   -6.9565290266E-01
   -6.9444516878E-01   -6.9324162118E-01   -6.9204223810E-01   -6.9084699799E-01
   -6.8965587940E-01   -6.8846886107E-01   -6.8728592184E-01   -6.8610704074E-01
   -6.8493219692E-01   -6.8376136967E-01   -6.8259453842E-01   -6.8143168277E-01
   -6.8027278242E-01   -6.7911781722E-01   -6.7796676717E-01   -6.7681961240E-01
   -6.7567633317E-01   -6.7453690986E-01   -6.7340132301E-01   -6.7226955326E-01
   -6.7114158142E-01   -6.7001738839E-01   -6.6889695521E-01   -6.6778026306E-01
   -6.6666729322E-01   -6.6555802713E-01   -6.6445244632E-01   -6.6335053245E-01
   -6.6225226732E-01   -6.6115763283E-01   -6.6006661101E-01   -6.5897918400E-01
   -6.5789533406E-01   -6.5681504358E-01   -6.5573829505E-01   -6.5466507107E-01
   -6.5359535438E-01   -6.5252912780E-01   -6.5146637428E-01   -6.5040707689E-01
   -6.4935121878E-01   -6.4829878325E-01   -6.4724975366E-01   -6.4620411352E-01
   -6.4516184643E-01   -6.4412293609E-01   -6.4308736631E-01   -6.4205512100E-01
   -6.4102618418E-01   -6.4000053998E-01   -6.3897817260E-01   -6.3795906638E-01
   -6.3694320573E-01   -6.3593057518E-01   -6.3492115934E-01   -6.3391494292E-01
   -6.3291191075E-01   -6.3191204773E-01   -6.3091533887E-01   -6.2992176926E-01
   -6.2893132409E-01   -6.2794398866E-01   -6.2695974833E-01   -6.2597858859E-01